# vtk DataFile Version 3.0
vtk output
ASCII
DATASET UNSTRUCTURED_GRID
POINTS 13100 double
8.250000e-01	2.490000e-02	0.0	6.750000e-01	-2.870000e-02	0.0	8.250000e-01	2.410000e-02	0.0	1.044520e+00	-1.740390e-01	0.0	1.037880e+00	-1.812280e-01	0.0	3.000000e+01	0.000000e+00	0.0	0.000000e+00	3.000000e+01	0.0	-3.000000e+01	0.000000e+00	0.0	0.000000e+00	-3.000000e+01	0.0	8.225136e-01	2.515232e-02	0.0	8.200260e-01	2.539252e-02	0.0	8.175378e-01	2.562525e-02	0.0	8.150494e-01	2.585730e-02	0.0	8.125613e-01	2.609165e-02	0.0	8.100736e-01	2.633135e-02	0.0	8.075861e-01	2.657236e-02	0.0	8.050983e-01	2.680983e-02	0.0	8.026098e-01	2.704006e-02	0.0	8.001202e-01	2.725873e-02	0.0	7.976299e-01	2.746874e-02	0.0	7.951395e-01	2.767761e-02	0.0	7.926495e-01	2.789148e-02	0.0	7.901604e-01	2.811515e-02	0.0	7.876726e-01	2.835330e-02	0.0	7.851860e-01	2.860319e-02	0.0	7.826998e-01	2.885676e-02	0.0	7.802132e-01	2.910705e-02	0.0	7.777258e-01	2.934887e-02	0.0	7.752372e-01	2.957879e-02	0.0	7.727477e-01	2.979747e-02	0.0	7.702575e-01	3.000941e-02	0.0	7.677670e-01	3.021649e-02	0.0	7.652761e-01	3.042027e-02	0.0	7.627851e-01	3.062199e-02	0.0	7.602941e-01	3.082274e-02	0.0	7.578030e-01	3.102339e-02	0.0	7.553119e-01	3.122471e-02	0.0	7.528212e-01	3.142976e-02	0.0	7.503311e-01	3.164143e-02	0.0	7.478411e-01	3.185610e-02	0.0	7.453511e-01	3.206905e-02	0.0	7.428606e-01	3.227672e-02	0.0	7.403695e-01	3.247765e-02	0.0	7.378779e-01	3.267186e-02	0.0	7.353859e-01	3.286004e-02	0.0	7.328934e-01	3.304304e-02	0.0	7.304007e-01	3.322165e-02	0.0	7.279077e-01	3.339668e-02	0.0	7.254145e-01	3.356925e-02	0.0	7.229212e-01	3.374009e-02	0.0	7.204278e-01	3.390963e-02	0.0	7.179343e-01	3.407814e-02	0.0	7.154408e-01	3.424580e-02	0.0	7.129472e-01	3.441275e-02	0.0	7.104536e-01	3.457908e-02	0.0	7.079600e-01	3.474488e-02	0.0	7.054663e-01	3.491018e-02	0.0	7.029726e-01	3.507505e-02	0.0	7.004789e-01	3.523952e-02	0.0	6.979851e-01	3.540361e-02	0.0	6.954913e-01	3.556734e-02	0.0	6.929975e-01	3.573075e-02	0.0	6.905037e-01	3.589382e-02	0.0	6.880099e-01	3.605658e-02	0.0	6.855160e-01	3.621902e-02	0.0	6.830221e-01	3.638113e-02	0.0	6.805282e-01	3.654289e-02	0.0	6.780343e-01	3.670427e-02	0.0	6.755403e-01	3.686520e-02	0.0	6.730464e-01	3.702597e-02	0.0	6.705524e-01	3.718730e-02	0.0	6.680585e-01	3.734890e-02	0.0	6.655645e-01	3.750979e-02	0.0	6.630704e-01	3.766751e-02	0.0	6.605758e-01	3.781852e-02	0.0	6.580807e-01	3.796176e-02	0.0	6.555854e-01	3.809963e-02	0.0	6.530899e-01	3.823465e-02	0.0	6.505943e-01	3.836829e-02	0.0	6.480987e-01	3.850119e-02	0.0	6.456031e-01	3.863339e-02	0.0	6.431074e-01	3.876490e-02	0.0	6.406117e-01	3.889573e-02	0.0	6.381159e-01	3.902586e-02	0.0	6.356201e-01	3.915530e-02	0.0	6.331243e-01	3.928401e-02	0.0	6.306284e-01	3.941197e-02	0.0	6.281325e-01	3.953916e-02	0.0	6.256365e-01	3.966553e-02	0.0	6.231406e-01	3.979105e-02	0.0	6.206445e-01	3.991565e-02	0.0	6.181484e-01	4.003928e-02	0.0	6.156523e-01	4.016186e-02	0.0	6.131561e-01	4.028332e-02	0.0	6.106598e-01	4.040356e-02	0.0	6.081635e-01	4.052246e-02	0.0	6.056671e-01	4.063988e-02	0.0	6.031707e-01	4.075566e-02	0.0	6.006741e-01	4.086959e-02	0.0	5.981775e-01	4.098194e-02	0.0	5.956808e-01	4.109386e-02	0.0	5.931842e-01	4.120528e-02	0.0	5.906875e-01	4.131604e-02	0.0	5.881908e-01	4.142599e-02	0.0	5.856940e-01	4.153499e-02	0.0	5.831972e-01	4.164289e-02	0.0	5.807003e-01	4.174954e-02	0.0	5.782034e-01	4.185478e-02	0.0	5.757064e-01	4.195847e-02	0.0	5.732093e-01	4.206046e-02	0.0	5.707122e-01	4.216060e-02	0.0	5.682149e-01	4.225874e-02	0.0	5.657176e-01	4.235473e-02	0.0	5.632202e-01	4.244843e-02	0.0	5.607228e-01	4.253967e-02	0.0	5.582252e-01	4.262832e-02	0.0	5.557275e-01	4.271422e-02	0.0	5.532297e-01	4.279722e-02	0.0	5.507319e-01	4.287717e-02	0.0	5.482339e-01	4.295335e-02	0.0	5.457357e-01	4.302426e-02	0.0	5.432375e-01	4.309033e-02	0.0	5.407391e-01	4.315208e-02	0.0	5.382406e-01	4.321004e-02	0.0	5.357421e-01	4.326471e-02	0.0	5.332434e-01	4.331664e-02	0.0	5.307448e-01	4.336634e-02	0.0	5.282461e-01	4.341433e-02	0.0	5.257474e-01	4.346115e-02	0.0	5.232487e-01	4.350731e-02	0.0	5.207499e-01	4.355333e-02	0.0	5.182512e-01	4.359975e-02	0.0	5.157525e-01	4.364709e-02	0.0	5.132539e-01	4.369586e-02	0.0	5.107552e-01	4.374660e-02	0.0	5.082566e-01	4.379982e-02	0.0	5.057581e-01	4.385606e-02	0.0	5.032597e-01	4.391583e-02	0.0	5.007614e-01	4.397966e-02	0.0	4.982631e-01	4.404807e-02	0.0	4.957651e-01	4.412106e-02	0.0	4.932671e-01	4.419809e-02	0.0	4.907692e-01	4.427859e-02	0.0	4.882715e-01	4.436201e-02	0.0	4.857738e-01	4.444779e-02	0.0	4.832762e-01	4.453535e-02	0.0	4.807786e-01	4.462415e-02	0.0	4.782811e-01	4.471362e-02	0.0	4.757835e-01	4.480321e-02	0.0	4.732860e-01	4.489235e-02	0.0	4.707884e-01	4.498048e-02	0.0	4.682907e-01	4.506704e-02	0.0	4.657930e-01	4.515148e-02	0.0	4.632952e-01	4.523322e-02	0.0	4.607973e-01	4.531172e-02	0.0	4.582993e-01	4.538641e-02	0.0	4.558011e-01	4.545672e-02	0.0	4.533028e-01	4.552210e-02	0.0	4.508044e-01	4.558198e-02	0.0	4.483058e-01	4.563631e-02	0.0	4.458072e-01	4.568647e-02	0.0	4.433085e-01	4.573283e-02	0.0	4.408097e-01	4.577564e-02	0.0	4.383108e-01	4.581518e-02	0.0	4.358120e-01	4.585169e-02	0.0	4.333130e-01	4.588545e-02	0.0	4.308141e-01	4.591671e-02	0.0	4.283151e-01	4.594574e-02	0.0	4.258161e-01	4.597280e-02	0.0	4.233171e-01	4.599815e-02	0.0	4.208180e-01	4.602205e-02	0.0	4.183190e-01	4.604476e-02	0.0	4.158199e-01	4.606656e-02	0.0	4.133209e-01	4.608769e-02	0.0	4.108218e-01	4.610842e-02	0.0	4.083228e-01	4.612902e-02	0.0	4.058237e-01	4.614975e-02	0.0	4.033246e-01	4.617086e-02	0.0	4.008256e-01	4.619262e-02	0.0	3.983265e-01	4.621500e-02	0.0	3.958275e-01	4.623715e-02	0.0	3.933284e-01	4.625892e-02	0.0	3.908294e-01	4.628024e-02	0.0	3.883303e-01	4.630103e-02	0.0	3.858312e-01	4.632123e-02	0.0	3.833322e-01	4.634075e-02	0.0	3.808331e-01	4.635952e-02	0.0	3.783340e-01	4.637747e-02	0.0	3.758349e-01	4.639452e-02	0.0	3.733358e-01	4.641059e-02	0.0	3.708367e-01	4.642562e-02	0.0	3.683376e-01	4.643952e-02	0.0	3.658385e-01	4.645222e-02	0.0	3.633394e-01	4.646365e-02	0.0	3.608402e-01	4.647373e-02	0.0	3.583411e-01	4.648238e-02	0.0	3.558420e-01	4.648954e-02	0.0	3.533428e-01	4.649512e-02	0.0	3.508437e-01	4.649906e-02	0.0	3.483445e-01	4.650138e-02	0.0	3.458454e-01	4.650243e-02	0.0	3.433462e-01	4.650223e-02	0.0	3.408471e-01	4.650078e-02	0.0	3.383479e-01	4.649807e-02	0.0	3.358488e-01	4.649413e-02	0.0	3.333496e-01	4.648893e-02	0.0	3.308505e-01	4.648248e-02	0.0	3.283514e-01	4.647478e-02	0.0	3.258522e-01	4.646584e-02	0.0	3.233531e-01	4.645564e-02	0.0	3.208540e-01	4.644420e-02	0.0	3.183549e-01	4.643150e-02	0.0	3.158558e-01	4.641756e-02	0.0	3.133567e-01	4.640237e-02	0.0	3.108576e-01	4.638593e-02	0.0	3.083585e-01	4.636824e-02	0.0	3.058594e-01	4.634930e-02	0.0	3.033603e-01	4.632911e-02	0.0	3.008613e-01	4.630768e-02	0.0	2.983622e-01	4.628515e-02	0.0	2.958632e-01	4.626200e-02	0.0	2.933641e-01	4.623817e-02	0.0	2.908651e-01	4.621353e-02	0.0	2.883661e-01	4.618799e-02	0.0	2.858671e-01	4.616143e-02	0.0	2.833681e-01	4.613373e-02	0.0	2.808691e-01	4.610478e-02	0.0	2.783702e-01	4.607447e-02	0.0	2.758712e-01	4.604270e-02	0.0	2.733723e-01	4.600933e-02	0.0	2.708734e-01	4.597427e-02	0.0	2.683745e-01	4.593741e-02	0.0	2.658757e-01	4.589862e-02	0.0	2.633768e-01	4.585780e-02	0.0	2.608781e-01	4.581483e-02	0.0	2.583793e-01	4.576960e-02	0.0	2.558806e-01	4.572201e-02	0.0	2.533820e-01	4.567193e-02	0.0	2.508834e-01	4.561926e-02	0.0	2.483848e-01	4.556415e-02	0.0	2.458863e-01	4.550741e-02	0.0	2.433879e-01	4.544906e-02	0.0	2.408894e-01	4.538900e-02	0.0	2.383911e-01	4.532718e-02	0.0	2.358927e-01	4.526351e-02	0.0	2.333944e-01	4.519792e-02	0.0	2.308962e-01	4.513034e-02	0.0	2.283980e-01	4.506069e-02	0.0	2.258999e-01	4.498890e-02	0.0	2.234018e-01	4.491489e-02	0.0	2.209039e-01	4.483859e-02	0.0	2.184060e-01	4.475992e-02	0.0	2.159081e-01	4.467881e-02	0.0	2.134104e-01	4.459518e-02	0.0	2.109127e-01	4.450897e-02	0.0	2.084151e-01	4.442009e-02	0.0	2.059177e-01	4.432847e-02	0.0	2.034203e-01	4.423404e-02	0.0	2.009231e-01	4.413672e-02	0.0	1.984259e-01	4.403650e-02	0.0	1.959289e-01	4.393359e-02	0.0	1.934320e-01	4.382811e-02	0.0	1.909352e-01	4.372013e-02	0.0	1.884384e-01	4.360972e-02	0.0	1.859418e-01	4.349693e-02	0.0	1.834453e-01	4.338178e-02	0.0	1.809490e-01	4.326430e-02	0.0	1.784527e-01	4.314449e-02	0.0	1.759565e-01	4.302235e-02	0.0	1.734605e-01	4.289786e-02	0.0	1.709646e-01	4.277100e-02	0.0	1.684687e-01	4.264170e-02	0.0	1.659731e-01	4.250992e-02	0.0	1.634775e-01	4.237557e-02	0.0	1.609822e-01	4.223856e-02	0.0	1.584869e-01	4.209876e-02	0.0	1.559918e-01	4.195602e-02	0.0	1.534970e-01	4.181016e-02	0.0	1.510023e-01	4.166095e-02	0.0	1.485078e-01	4.150830e-02	0.0	1.460135e-01	4.135261e-02	0.0	1.435194e-01	4.119369e-02	0.0	1.410255e-01	4.103126e-02	0.0	1.385319e-01	4.086503e-02	0.0	1.360386e-01	4.069471e-02	0.0	1.335456e-01	4.052000e-02	0.0	1.310529e-01	4.034059e-02	0.0	1.285605e-01	4.015619e-02	0.0	1.260686e-01	3.996653e-02	0.0	1.235771e-01	3.977132e-02	0.0	1.210860e-01	3.957032e-02	0.0	1.185954e-01	3.936331e-02	0.0	1.161054e-01	3.915010e-02	0.0	1.136159e-01	3.893054e-02	0.0	1.111270e-01	3.870451e-02	0.0	1.086387e-01	3.847177e-02	0.0	1.061512e-01	3.823146e-02	0.0	1.036643e-01	3.798369e-02	0.0	1.011782e-01	3.772865e-02	0.0	9.869287e-02	3.746648e-02	0.0	9.620826e-02	3.719729e-02	0.0	9.372442e-02	3.692112e-02	0.0	9.124136e-02	3.663798e-02	0.0	8.875912e-02	3.634781e-02	0.0	8.627772e-02	3.605050e-02	0.0	8.379721e-02	3.574585e-02	0.0	8.131764e-02	3.543360e-02	0.0	7.883910e-02	3.511337e-02	0.0	7.636167e-02	3.478463e-02	0.0	7.388555e-02	3.444616e-02	0.0	7.141140e-02	3.409353e-02	0.0	6.893949e-02	3.372563e-02	0.0	6.646993e-02	3.334223e-02	0.0	6.400283e-02	3.294327e-02	0.0	6.153828e-02	3.252889e-02	0.0	5.907630e-02	3.209950e-02	0.0	5.661685e-02	3.165585e-02	0.0	5.415979e-02	3.119911e-02	0.0	5.170489e-02	3.073094e-02	0.0	4.925167e-02	3.025400e-02	0.0	4.679885e-02	2.977507e-02	0.0	4.434779e-02	2.928717e-02	0.0	4.190165e-02	2.877527e-02	0.0	3.946460e-02	2.822178e-02	0.0	3.704086e-02	2.761278e-02	0.0	3.463302e-02	2.694363e-02	0.0	3.224133e-02	2.621885e-02	0.0	2.986710e-02	2.543878e-02	0.0	2.750733e-02	2.461591e-02	0.0	2.515848e-02	2.376234e-02	0.0	2.281
[...]
POINT_DATA 13100

SCALARS Density double 1
LOOKUP_TABLE default
1.139190e+00	1.220466e+00	1.151950e+00	1.182607e+00	1.182306e+00	1.224117e+00	1.224515e+00	1.225030e+00	1.225468e+00	1.184351e+00	1.183133e+00	1.183386e+00	1.183876e+00	1.184071e+00	1.184116e+00	1.184298e+00	1.184669e+00	1.185177e+00	1.185939e+00	1.186559e+00	1.186920e+00	1.187171e+00	1.187046e+00	1.186679e+00	1.186251e+00	1.186031e+00	1.186012e+00	1.186208e+00	1.186549e+00	1.186937e+00	1.187219e+00	1.187522e+00	1.187736e+00	1.187889e+00	1.188103e+00	1.188240e+00	1.188347e+00	1.188236e+00	1.187992e+00	1.187825e+00	1.187817e+00	1.187926e+00	1.188049e+00	1.188193e+00	1.188294e+00	1.188463e+00	1.188621e+00	1.188751e+00	1.188860e+00	1.188984e+00	1.189088e+00	1.189189e+00	1.189256e+00	1.189314e+00	1.189336e+00	1.189407e+00	1.189430e+00	1.189462e+00	1.189503e+00	1.189588e+00	1.189592e+00	1.189607e+00	1.189653e+00	1.189643e+00	1.189659e+00	1.189643e+00	1.189637e+00	1.189666e+00	1.189652e+00	1.189569e+00	1.189496e+00	1.189351e+00	1.189194e+00	1.189151e+00	1.189395e+00	1.189526e+00	1.189603e+00	1.189695e+00	1.189725e+00	1.189752e+00	1.189729e+00	1.189746e+00	1.189737e+00	1.189753e+00	1.189731e+00	1.189747e+00	1.189728e+00	1.189710e+00	1.189717e+00	1.189713e+00	1.189691e+00	1.189687e+00	1.189669e+00	1.189658e+00	1.189676e+00	1.189666e+00	1.189680e+00	1.189692e+00	1.189740e+00	1.189751e+00	1.189703e+00	1.189674e+00	1.189670e+00	1.189617e+00	1.189584e+00	1.189528e+00	1.189485e+00	1.189477e+00	1.189452e+00	1.189392e+00	1.189400e+00	1.189384e+00	1.189331e+00	1.189295e+00	1.189334e+00	1.189273e+00	1.189249e+00	1.189197e+00	1.189191e+00	1.189200e+00	1.189265e+00	1.189370e+00	1.189420e+00	1.189505e+00	1.189573e+00	1.189620e+00	1.189699e+00	1.189771e+00	1.189807e+00	1.189858e+00	1.189931e+00	1.189979e+00	1.190043e+00	1.190080e+00	1.190086e+00	1.190096e+00	1.190076e+00	1.190018e+00	1.189956e+00	1.189858e+00	1.189732e+00	1.189617e+00	1.189517e+00	1.189299e+00	1.189149e+00	1.189037e+00	1.188846e+00	1.188725e+00	1.188573e+00	1.188386e+00	1.188244e+00	1.188117e+00	1.187984e+00	1.187881e+00	1.187809e+00	1.187730e+00	1.187691e+00	1.187661e+00	1.187682e+00	1.187644e+00	1.187628e+00	1.187591e+00	1.187591e+00	1.187592e+00	1.187596e+00	1.187586e+00	1.187595e+00	1.187573e+00	1.187582e+00	1.187572e+00	1.187554e+00	1.187560e+00	1.187562e+00	1.187525e+00	1.187499e+00	1.187488e+00	1.187421e+00	1.187373e+00	1.187249e+00	1.187154e+00	1.187076e+00	1.186985e+00	1.186935e+00	1.186853e+00	1.186803e+00	1.186733e+00	1.186640e+00	1.186562e+00	1.186531e+00	1.186460e+00	1.186339e+00	1.186270e+00	1.186188e+00	1.186084e+00	1.185994e+00	1.185875e+00	1.185818e+00	1.185776e+00	1.185665e+00	1.185583e+00	1.185522e+00	1.185378e+00	1.185301e+00	1.185179e+00	1.185131e+00	1.185015e+00	1.184951e+00	1.184864e+00	1.184770e+00	1.184645e+00	1.184556e+00	1.184429e+00	1.184377e+00	1.184259e+00	1.184170e+00	1.184013e+00	1.183936e+00	1.183815e+00	1.183728e+00	1.183653e+00	1.183540e+00	1.183466e+00	1.183332e+00	1.183236e+00	1.183079e+00	1.182959e+00	1.182736e+00	1.182602e+00	1.182502e+00	1.182375e+00	1.182285e+00	1.182141e+00	1.182026e+00	1.181866e+00	1.181741e+00	1.181543e+00	1.181424e+00	1.181340e+00	1.181220e+00	1.181135e+00	1.180959e+00	1.180839e+00	1.180661e+00	1.180565e+00	1.180415e+00	1.180287e+00	1.180076e+00	1.179955e+00	1.179770e+00	1.179527e+00	1.179318e+00	1.179182e+00	1.178949e+00	1.178804e+00	1.178573e+00	1.178437e+00	1.178290e+00	1.178079e+00	1.177917e+00	1.177805e+00	1.177597e+00	1.177469e+00	1.177282e+00	1.176994e+00	1.176846e+00	1.176623e+00	1.176323e+00	1.176056e+00	1.175848e+00	1.175573e+00	1.175402e+00	1.175101e+00	1.174757e+00	1.174555e+00	1.174277e+00	1.173856e+00	1.173622e+00	1.173263e+00	1.173047e+00	1.172709e+00	1.172425e+00	1.172026e+00	1.171700e+00	1.171243e+00	1.170957e+00	1.170586e+00	1.170335e+00	1.169931e+00	1.169625e+00	1.169222e+00	1.168924e+00	1.168371e+00	1.168044e+00	1.167479e+00	1.167048e+00	1.166519e+00	1.166069e+00	1.165591e+00	1.165187e+00	1.164714e+00	1.164047e+00	1.163701e+00	1.163090e+00	1.162649e+00	1.161886e+00	1.161283e+00	1.160537e+00	1.159885e+00	1.158936e+00	1.157930e+00	1.157223e+00	1.156691e+00	1.155826e+00	1.155097e+00	1.154119e+00	1.153415e+00	1.152415e+00	1.151221e+00	1.150163e+00	1.148274e+00	1.145992e+00	1.143418e+00	1.141148e+00	1.139259e+00	1.138520e+00	1.137791e+00	1.137578e+00	1.137150e+00	1.136741e+00	1.135638e+00	1.133064e+00	1.129287e+00	1.124032e+00	1.115554e+00	1.103082e+00	1.095671e+00	1.109435e+00	1.116642e+00	1.118411e+00	1.134984e+00	1.146939e+00	1.162429e+00	1.179503e+00	1.192849e+00	1.211127e+00	1.224447e+00	1.232952e+00	1.241097e+00	1.247388e+00	1.251321e+00	1.254196e+00	1.253769e+00	1.252713e+00	1.252047e+00	1.252035e+00	1.251257e+00	1.249904e+00	1.249485e+00	1.248777e+00	1.248525e+00	1.248022e+00	1.247268e+00	1.246923e+00	1.246312e+00	1.246142e+00	1.245661e+00	1.244959e+00	1.244798e+00	1.244367e+00	1.243945e+00	1.243994e+00	1.243753e+00	1.243412e+00	1.243069e+00	1.243002e+00	1.242670e+00	1.242197e+00	1.242011e+00	1.241795e+00	1.241485e+00	1.241312e+00	1.241076e+00	1.240971e+00	1.240848e+00	1.240573e+00	1.240366e+00	1.240191e+00	1.240046e+00	1.239900e+00	1.239805e+00	1.239651e+00	1.239559e+00	1.239446e+00	1.239257e+00	1.239131e+00	1.239006e+00	1.238894e+00	1.238847e+00	1.238735e+00	1.238590e+00	1.238518e+00	1.238444e+00	1.238377e+00	1.238360e+00	1.238281e+00	1.238185e+00	1.238112e+00	1.238083e+00	1.237994e+00	1.237946e+00	1.237903e+00	1.237820e+00	1.237748e+00	1.237686e+00	1.237665e+00	1.237583e+00	1.237510e+00	1.237458e+00	1.237404e+00	1.237355e+00	1.237308e+00	1.237280e+00	1.237218e+00	1.237162e+00	1.237110e+00	1.237064e+00	1.237015e+00	1.236989e+00	1.236939e+00	1.236901e+00	1.236848e+00	1.236770e+00	1.236737e+00	1.236695e+00	1.236654e+00	1.236616e+00	1.236591e+00	1.236589e+00	1.236536e+00	1.236505e+00	1.236497e+00	1.236463e+00	1.236430e+00	1.236418e+00	1.236399e+00	1.236376e+00	1.236356e+00	1.236330e+00	1.236306e+00	1.236294e+00	1.236252e+00	1.236210e+00	1.236185e+00	1.236160e+00	1.236143e+00	1.236130e+00	1.236116e+00	1.236112e+00	1.236102e+00	1.236089e+00	1.236081e+00	1.236080e+00	1.236076e+00	1.236085e+00	1.236080e+00	1.236077e+00	1.236075e+00	1.236082e+00	1.236081e+00	1.236082e+00	1.236074e+00	1.236051e+00	1.236028e+00	1.236016e+00	1.236014e+00	1.236012e+00	1.235997e+00	1.235983e+00	1.235971e+00	1.235958e+00	1.235955e+00	1.235948e+00	1.235949e+00	1.235944e+00	1.235935e+00	1.235923e+00	1.235916e+00	1.235913e+00	1.235905e+00	1.235902e+00	1.235895e+00	1.235884e+00	1.235878e+00	1.235877e+00	1.235876e+00	1.235877e+00	1.235878e+00	1.235876e+00	1.235875e+00	1.235879e+00	1.235888e+00	1.235892e+00	1.235898e+00	1.235904e+00	1.235912e+00	1.235918e+00	1.235927e+00	1.235935e+00	1.235943e+00	1.235950e+00	1.235960e+00	1.235964e+00	1.235969e+00	1.235972e+00	1.235980e+00	1.235989e+00	1.235992e+00	1.235992e+00	1.235997e+00	1.236000e+00	1.236001e+00	1.236005e+00	1.236013e+00	1.236018e+00	1.236027e+00	1.236036e+00	1.236044e+00	1.236041e+00	1.236042e+00	1.236047e+00	1.236079e+00	1.236093e+00	1.236116e+00	1.236128e+00	1.236138e+00	1.236148e+00	1.236156e+00	1.236160e+00	1.236164e+00	1.236172e+00	1.236182e+00	1.236194e+00	1.236207e+00	1.236206e+00	1.236216e+00	1.236226e+00	1.236241e+00	1.236242e+00	1.236252e+00	1.236267e+00	1.236308e+00	1.236354e+00	1.236386e+00	1.236412e+00	1.236432e+00	1.236451e+00	1.236456e+00	1.236465e+00	1.236467e+00	1.236476e+00	1.236486e+00	1.236497e+00	1.236514e+00	1.236538e+00	1.236559e+00	1.236560e+00	1.236572e+00	1.236582e+00	1.236602e+00	1.236603e+00	1.236657e+00	1.236738e+00	1.236802e+00	1.236836e+00	1.236878e+00	1.236903e+00	1.236935e+00	1.236952e+00	1.236968e+00	1.237007e+00	1.237017e+00	1.237036e+00	1.237067e+00	1.237095e+00	1.237106e+00	1.237138e+00	1.237168e+00	1.237212e+00	1.237267e+00	1.237285e+00	1.237307e+00	1.237371e+00	1.237423e+00	1.237552e+00	1.237629e+00	1.237707e+00	1.237875e+00	1.238023e+00	1.238148e+00	1.238151e+00	1.238280e+00	1.238403e+00	1.238535e+00	1.238694e+00	1.238790e+00	1.238870e+00	1.238968e+00	1.239118e+00	1.239220e+00	1.239344e+00	1.239434e+00	1.239371e+00	1.239424e+00	1.239340e+00	1.239362e+00	1.239426e+00	1.239688e+00	1.239946e+00	1.240941e+00	1.243202e+00	1.209586e+00	1.217580e+00	1.220472e+00	1.222136e+00	1.223076e+00	1.223477e+00	1.223664e+00	1.223940e+00	1.224164e+00	1.224655e+00	1.224880e+00	1.225227e+00	1.225615e+00	1.225716e+00	1.226074e+00	1.226224e+00	1.226273e+00	1.226552e+00	1.226839e+00	1.227028e+00	1.227156e+00	1.227261e+00	1.227599e+00	1.227999e+00	1.228159e+00	1.228470e+00	1.228806e+00	1.229037e+00	1.229153e+00	1.229489e+00	1.229776e+00	1.229956e+00	1.230090e+00	1.230226e+00	1.230339e+00	1.230461e+00	1.230552e+00	1.230678e+00	1.230857e+00	1.230973e+00	1.231130e+00	1.231363e+00	1.231459e+00	1.231695e+00	1.231752e+00	1.231916e+00	1.232155e+00	1.232291e+00	1.232552e+00	1.232628e+00	1.233083e+00	1.233407e+00	1.233304e+00	1.233390e+00	1.233858e+00	1.234196e+00	1.234497e+00	1.234697e+00	1.234765e+00	1.233496e+00	1.233376e+00	1.232289e+00	1.231023e+00	1.229510e+00	1.226837e+00	1.222793e+00	1.218290e+00	1.212259e+00	1.204586e+00	1.198919e+00	1.224052e+00	1.224124e+00	1.224330e+00	1.224429e+00	1.224501e+00	1.224535e+00	1.224538e+00	1.224540e+00	1.224546e+00	1.224542e+00	1.224537e+00	1.224530e+00	1.224521e+00	1.224519e+00	1.224522e+00	1.224518e+00	1.224517e+00	1.224532e+00	1.224562e+00	1.224593e+00	1.224632e+00	1.224665e+00	1.224698e+00	1.224737e+00	1.224779e+00	1.224822e+00	1.224865e+00	1.224909e+00	1.224952e+00	1.224990e+00	1.225074e+00	1.225115e+00	1.225157e+00	1.225193e+00	1.225231e+00	1.225270e+00	1.225304e+00	1.225332e+00	1.225358e+00	1.225388e+00	1.225412e+00	1.225429e+00	1.225449e+00	1.225459e+00	1.225469e+00	1.225458e+00	1.225444e+00	1.225433e+00	1.225416e+00	1.225399e+00	1.225375e+00	1.225352e+00	1.225324e+00	1.225297e+00	1.225262e+00	1.225211e+00	1.225134e+00	1.225018e+00	1.224750e+00	1.224360e+00	1.201837e+00	1.201040e+00	1.199630e+00	1.197442e+00	1.197909e+00	1.199563e+00	1.199818e+00	1.199845e+00	1.199593e+00	1.199097e+00	1.198589e+00	1.198148e+00	1.197542e+00	1.197099e+00	1.196801e+00	1.196451e+00	1.195939e+00	1.195498e+00	1.194957e+00	1.194345e+00	1.193578e+00	1.193101e+00	1.192643e+00	1.192024e+00	1.191302e+00	1.190679e+00	1.189956e+00	1.189232e+00	1.188479e+00	1.187589e+00	1.186285e+00	1.184709e+00	1.183650e+00	1.183187e+00	1.182262e+00	1.180829e+00	1.179488e+00	1.178511e+00	1.177882e+00	1.177741e+00	1.177237e+00	1.176563e+00	1.175751e+00	1.174747e+00	1.174090e+00	1.173266e+00	1.172126e+00	1.171164e+00	1.170071e+00	1.168339e+00	1.166790e+00	1.165598e+00	1.164909e+00	1.164440e+00	1.163571e+00	1.161440e+00	1.160157e+00	1.158872e+00	1.158168e+00	1.158447e+00	1.158849e+00	1.158397e+00	1.158547e+00	1.161091e+00	1.160274e+00	1.160774e+00	1.171522e+00	1.182334e+00	1.196360e+00	1.217208e+00	1.233373e+00	1.244058e+00	1.244533e+00	1.242928e+00	1.242644e+00	1.242522e+00	1.242583e+00	1.242712e+00	1.242845e+00	1.242807e+00	1.243049e+00	1.242954e+00	1.243045e+00	1.243380e+00	1.243376e+00	1.243157e+00	1.243461e+00	1.243367e+00	1.243456e+00	1.243546e+00	1.243425e+00	1.243449e+00	1.243531e+00	1.243459e+00	1.243656e+00	1.243544e+00	1.243545e+00	1.243498e+00	1.243448e+00	1.243459e+00	1.243383e+00	1.243424e+00	1.243304e+00	1.243331e+00	1.243303e+00	1.243228e+00	1.243304e+00	1.243150e+00	1.243025e+00	1.242992e+00	1.242980e+00	1.242986e+00	1.242939e+00	1.242932e+00	1.242765e+00	1.242729e+00	1.242623e+00	1.242556e+00	1.242499e+00	1.242428e+00	1.242421e+00	1.242317e+00	1.242234e+00	1.242115e+00	1.242167e+00	1.242166e+00	1.242070e+00	1.242101e+00	1.242015e+00	1.241912e+00	1.241807e+00	1.241745e+00	1.241609e+00	1.241584e+00	1.241410e+00	1.241337e+00	1.241258e+00	1.241092e+00	1.241064e+00	1.240942e+00	1.240848e+00	1.240808e+00	1.240721e+00	1.240786e+00	1.240702e+00	1.240576e+00	1.240402e+00	1.240332e+00	1.240174e+00	1.240010e+00	1.239912e+00	1.239633e+00	1.239585e+00	1.239466e+00	1.239491e+00	1.239471e+00	1.239291e+00	1.239193e+00	1.238826e+00	1.238305e+00	1.237897e+00	1.237974e+00	1.237818e+00	1.237431e+00	1.237035e+00	1.236761e+00	1.236687e+00	1.236367e+00	1.235780e+00	1.235623e+00	1.238627e+00	1.141675e+00	1.164490e+00	1.225643e+00	1.224250e+00	1.226236e+00	1.223663e+00	1.227414e+00	1.222362e+00	1.229568e+00	1.219426e+00	1.222045e+00	1.232729e+00	1.214081e+00	1.236395e+00	1.219930e+00	1.217583e+00	1.227482e+00	1.238737e+00	1.226362e+00	1.206952e+00	1.242976e+00	1.213455e+00	1.226829e+00	1.239281e+00	1.234795e+00	1.243334e+00	1.211944e+00	1.237957e+00	1.228202e+00	1.207694e+00	1.192504e+00	1.202975e+00	1.224682e+00	1.240902e+00	1.207255e+00	1.224219e+00	1.241999e+00	1.239411e+00	1.238962e+00	1.236423e+00	1.242071e+00	1.240099e+00	1.244849e+00	1.239845e+00	1.224123e+00	1.207715e+00	1.197205e+00	1.201787e+00	1.202009e+00	1.241549e+00	1.240470e+00	1.231887e+00	1.237586e+00	1.238809e+00	1.225330e+00	1.198265e+00	1.205249e+00	1.244065e+00	1.240425e+00	1.239268e+00	1.238595e+00	1.238806e+00	1.239538e+00	1.197642e+00	1.197597e+00	1.196794e+00	1.196419e+00	1.202242e+00	1.215736e+00	1.242033e+00	1.221511e+00	1.205300e+00	1.240768e+00	1.242581e+00	1.244687e+00	1.198004e+00	1.223903e+00	1.225899e+00	1.243177e+00	1.233259e+00	1.191982e+00	1.192119e+00	1.207526e+00	1.238845e+00	1.237964e+00	1.237993e+00	1.192676e+00	1.189806e+00	1.244913e+00	1.244473e+00	1.236679e+00	1.194992e+00	1.193310e+00	1.193851e+00	1.191785e+00	1.240807e+00	1.223249e+00	1.225425e+00	1.238994e+00	1.195120e+00	1.193922e+00	1.193857e+00	1.191715e+00	1.232558e+00	1.241529e+00	1.193879e+00	1.237809e+00	1.238358e+00	1.238649e+00	1.239677e+00	1.189163e+00	1.184304e+00	1.181740e+00	1.181936e+00	1.238135e+00	1.237859e+00	1.240046e+00	1.239301e+00	1.218695e+00	1.188989e+00	1.187551e+00	1.243144e+00	1.234489e+00	1.237442e+00	1.186005e+00	1.239574e+00	1.240209e+00	1.241731e+00	1.176510e+00	1.186339e+00	1.192789e+00	1.228429e+00	1.236871e+00	1.190949e+00	1.243554e+00	1.245842e+00	1.226090e+00	1.184820e+00	1.182677e+00	1.191964e+00	1.189832e+00	1.189353e+00	1.240673e+00	1.191205e+00	1.243554e+00	1.240863e+00	1.223908e+00	1.243547e+00	1.192530e+00	1.192137e+00	1.237074e+00	1.202304e+00	1.221110e+00	1.197820e+00	1.237238e+00	1.224474e+00	1.228763e+00	1.192269e+00	1.241805e+00	1.188979e+00	1.191762e+00	1.216490e+00	1.188017e+00	1.238440e+00	1.191046e+00	1.190498e+00	1.246283e+00	1.230922e+00	1.241169e+00	1.190195e+00	1.237362e+00	1.244627e+00	1.236731e+00	1.224362e+00	1.238575e+00	1.224639e+00	1.239577e+00	1.225523e+00	1.228992e+00	1.189020e+00	1.187195e+00	1.243589e+00	1.224285e+00	1.222063e+00	1.237517e+00	1.236877e+00	1.236832e+00	1.178082e+00	1.178709e+00	1.244311e+00	1.224769e+00	1.232826e+00	1.191491e+00	1.191073e+00	1.216855e+00	1.219512e+00	1.237180e+00	1.237461e+00	1.198618e+00	1.169664e+00	1.232185e+00	1.230130e+00	1.184061e+00	1.238297e+00	1.237867e+00	1.227655e+00	1.240315e+00	1.237362e+00	1.209998e+00	1.236821e+00	1.244301e+00	1.186281e+00	1.185625e+00	1.184264e+00	1.183451e+00	1.172760e+00	1.189768e+00	1.240979e+00	1.239300e+00	1.233067e+00	1.223596e+00	1.230914e+00	1.236816e+00	1.241903e+00	1.232839e+00	1.241275e+00	1.240220e+00	1.244907e+00	1.237462e+00	1.237384e+00	1.238838e+00	1.216988e+00	1.191060e+00	1.167924e+00	1.241875e+00	1.238761e+00	1.243163e+00	1.223352e+00	1.236997e+00	1.224122e+00	1.223474e+00	1.241640e+00	1.172658e+00	1.243983e+00	1.225757e+00	1.224609e+00	1.225716e+00	1.244504e+00	1.242777e+00	1.243713e+00	1.244009e+00	1.191075e+00	1.222218e+00	1.225001e+00	1.189690e+00	1.193671e+00	1.242234e+00	1.240015e+00	1.188983e+00	1.190593e+00	1.242336e+00	1.246641e+00	1.180956e+00	1.189107e+00	1.238756e+00	1.238863e+00	1.236460e+00	1.217783e+00	1.190949e+00	1.165548e+00	1.230908e+00	1.221368e+00	1.209844e+00	1.181686e+00	1.227748e+00	1.240773e+00	1.178242e+00	1.226399e+00	1.225367e+00	1.236948e+00	1.187926e+00	1.233774e+00	1.229053e+00	1.214144e+00	1.232888e+00	1.236025e+00	1.242483e+00	1.208679e+00	1.190198e+00	1.236768e+00	1.201787e+00	1.202843e+00	1.249070e+00	1.247408e+00	1.236520e+00	1.236473e+00	1.241123e+00	1.244657e+00	1.244096e+00	1.190690e+00	1.239982e+00	1.225419e+00	1.189451e+00	1.240280e+00	1.239519e+00	1.190223e+00	1.224313e+00	1.186970e+00	1.243813e+00	1.236526e+00	1.190473e+00	1.224921e+00	1.237215e+00	1.237345e+00	1.175042e+00	1.190344e+00	1.225446e+00	1.236002e+00	1.190472e+00	1.205451e+00	1.221825e+00	1.187943e+00	1.190316e+00	1.224416e+00	1.187205e+00	1.172185e+00	1.159952e+00	1.201037e+00	1.178822e+00	1.226270e+00	1.243086e+00	1.241531e+00	1.198625e+00	1.226111e+00	1.236664e+00	1.222480e+00	1.241326e+00	1.245153e+00	1.189354e+00	1.234622e+00	1.239873e+00	1.202448e+00	1.202833e+00	1.238180e+00	1.237102e+00	1.222195e+00	1.249550e+00	1.215904e+00	1.188241e+00	1.200798e+00	1.213032e+00	1.225364e+00	1.241271e+00	1.201111e+00	1.236949e+00	1.240537e+00	1.238893e+00	1.236606e+00	1.232057e+00	1.236673e+00	1.225354e+00	1.224421e+00	1.238092e+00	1.233896e+00	1.198388e+00	1.190346e+00	1.215425e+00	1.241508e+00	1.240109e+00	1.223599e+00	1.180837e+00	1.198647e+00	1.237800e+00	1.196730e+00	1.239565e+00	1.222886e+00	1.243386e+00	1.186972e+00	1.185652e+00	1.228948e+00	1.224783e+00	1.234563e+00	1.241449e+00	1.240792e+00	1.190295e+00	1.239004e+00	1.226269e+00	1.236473e+00	1.242940e+00	1.240784e+00	1.237784e+00	1.223726e+00	1.236379e+00	1.205870e+00	1.212157e+00	1.237691e+00	1.176272e+00	1.188324e+00	1.154864e+00	1.239212e+00	1.239199e+00	1.167645e+00	1.243779e+00	1.189272e+00	1.230699e+00	1.190032e+00	1.242296e+00	1.235809e+00	1.242864e+00	1.239527e+00	1.214008e+00	1.189426e+00	1.188715e+00	1.206516e+00	1.237235e+00	1.237542e+00	1.180128e+00	1.238003e+00	1.234646e+00	1.238744e+00	1.218132e+00	1.185863e+00	1.244872e+00	1.243736e+00	1.241706e+00	1.240256e+00	1.164214e+00	1.224418e+00	1.224432e+00	1.243885e+00	1.225204e+00	1.238107e+00	1.223305e+00	1.241791e+00	1.226290e+00	1.199873e+00	1.243276e+00	1.217986e+00	1.197922e+00	1.194974e+00	1.240178e+00	1.241193e+00	1.187283e+00	1.239107e+00	1.239480e+00	1.241431e+00	1.194260e+00	1.224755e+00	1.234682e+00	1.207214e+00	1.229059e+00	1.242939e+00	1.243786e+00	1.235867e+00	1.184547e+00	1.226608e+00	1.225199e+00	1.224262e+00	1.239014e+00	1.236814e+00	1.212038e+00	1.183595e+00	1.182454e+00	1.238936e+00	1.236364e+00	1.207852e+00	1.222961e+00	1.225056e+00	1.236487e+00	1.236423e+00	1.198178e+00	1.220848e+00	1.211639e+00	1.237331e+00	1.223780e+00	1.238793e+00	1.236867e+00	1.225485e+00	1.188594e+00	1.238192e+00	1.243078e+00	1.174856e+00	1.239361e+00	1.235837e+00	1.190245e+00	1.236811e+00	1.184676e+00	1.238078e+00	1.243901e+00	1.224105e+00	1.173269e+00	1.184648e+00	1.240717e+00	1.240618e+00	1.223932e+00	1.225059e+00	1.239465e+00	1.242594e+00	1.198503e+00	1.239926e+00	1.175810e+00	1.236505e+00	1.242531e+00	1.237843e+00	1.238168e+00	1.242357e+00	1.208038e+00	1.190110e+00	1.238310e+00	1.225505e+00	1.240620e+00	1.192222e+00	1.239376e+00	1.236235e+00	1.240075e+00	1.181255e+00	1.244246e+00	1.238395e+00	1.221265e+00	1.237938e+00	1.202588e+00	1.190058e+00	1.190106e+00	1.195980e+00	1.241998e+00	1.228157e+00	1.195056e+00	1.224432e+00	1.242954e+00	1.225031e+00	1.242140e+00	1.190181e+00	1.236232e+00	1.236286e+00	1.236400e+00	1.244139e+00	1.243718e+00	1.232706e+00	1.240040e+00	1.243697e+00	1.193146e+00	1.187129e+00	1.187752e+00	1.190078e+00	1.244984e+00	1.238684e+00	1.239711e+00	1.217381e+00	1.236663e+00	1.149668e+00	1.224527e+00	1.224019e+00	1.195606e+00	1.226604e+00	1.244144e+00	1.184742e+00	1.236531e+00	1.180259e+00	1.236312e+00	1.239876e+00	1.188544e+00	1.178544e+00	1.204834e+00	1.244490e+00	1.242408e+00	1.168977e+00	1.201380e+00	1.190100e+00	1.239623e+00	1.242410e+00	1.241844e+00	1.195413e+00	1.237544e+00	1.234295e+00	1.221490e+00	1.189429e+00	1.183799e+00	1.186915e+00	1.182650e+00	1.241822e+00	1.241659e+00	1.239316e+00	1.219128e+00	1.173551e+00	1.181568e+00	1.193698e+00	1.230715e+00	1.228326e+00	1.232706e+00	1.187524e+00	1.189768e+00	1.238949e+00	1.222830e+00	1.223877e+00	1.238240e+00	1.185719e+00	1.223899e+00	1.189794e+00	1.236141e+00	1.230909e+00	1.225962e+00	1.225836e+00	1.182450e+00	1.244684e+00	1.224484e+00	1.182746e+00	1.158385e+00	1.239142e+00	1.236227e+00	1.240894e+00	1.240232e+00	1.228198e+00	1.22434