# vtk DataFile Version 3.0
vtk output
ASCII
DATASET UNSTRUCTURED_GRID
POINTS 1034 double
8.250000e-01	2.490000e-02	0.0	6.750000e-01	-2.870000e-02	0.0	8.250000e-01	2.410000e-02	0.0	1.078890e+00	-1.341520e-01	0.0	1.073600e+00	-1.423860e-01	0.0	8.225136e-01	2.515232e-02	0.0	8.200260e-01	2.539252e-02	0.0	8.175378e-01	2.562525e-02	0.0	8.150494e-01	2.585730e-02	0.0	8.125613e-01	2.609165e-02	0.0	8.100736e-01	2.633135e-02	0.0	8.075861e-01	2.657236e-02	0.0	8.050983e-01	2.680983e-02	0.0	8.026098e-01	2.704006e-02	0.0	8.001202e-01	2.725873e-02	0.0	7.976299e-01	2.746874e-02	0.0	7.951395e-01	2.767761e-02	0.0	7.926495e-01	2.789148e-02	0.0	7.901604e-01	2.811515e-02	0.0	7.876726e-01	2.835330e-02	0.0	7.851860e-01	2.860319e-02	0.0	7.826998e-01	2.885676e-02	0.0	7.802132e-01	2.910705e-02	0.0	7.777258e-01	2.934887e-02	0.0	7.752372e-01	2.957879e-02	0.0	7.727477e-01	2.979747e-02	0.0	7.702575e-01	3.000941e-02	0.0	7.677670e-01	3.021649e-02	0.0	7.652761e-01	3.042027e-02	0.0	7.627851e-01	3.062199e-02	0.0	7.602941e-01	3.082274e-02	0.0	7.578030e-01	3.102339e-02	0.0	7.553119e-01	3.122471e-02	0.0	7.528212e-01	3.142976e-02	0.0	7.503311e-01	3.164143e-02	0.0	7.478411e-01	3.185610e-02	0.0	7.453511e-01	3.206905e-02	0.0	7.428606e-01	3.227672e-02	0.0	7.403695e-01	3.247765e-02	0.0	7.378779e-01	3.267186e-02	0.0	7.353859e-01	3.286004e-02	0.0	7.328934e-01	3.304304e-02	0.0	7.304007e-01	3.322165e-02	0.0	7.279077e-01	3.339668e-02	0.0	7.254145e-01	3.356925e-02	0.0	7.229212e-01	3.374009e-02	0.0	7.204278e-01	3.390963e-02	0.0	7.179343e-01	3.407814e-02	0.0	7.154408e-01	3.424580e-02	0.0	7.129472e-01	3.441275e-02	0.0	7.104536e-01	3.457908e-02	0.0	7.079600e-01	3.474488e-02	0.0	7.054663e-01	3.491018e-02	0.0	7.029726e-01	3.507505e-02	0.0	7.004789e-01	3.523952e-02	0.0	6.979851e-01	3.540361e-02	0.0	6.954913e-01	3.556734e-02	0.0	6.929975e-01	3.573075e-02	0.0	6.905037e-01	3.589382e-02	0.0	6.880099e-01	3.605658e-02	0.0	6.855160e-01	3.621902e-02	0.0	6.830221e-01	3.638113e-02	0.0	6.805282e-01	3.654289e-02	0.0	6.780343e-01	3.670427e-02	0.0	6.755403e-01	3.686520e-02	0.0	6.730464e-01	3.702597e-02	0.0	6.705524e-01	3.718730e-02	0.0	6.680585e-01	3.734890e-02	0.0	6.655645e-01	3.750979e-02	0.0	6.630704e-01	3.766751e-02	0.0	6.605758e-01	3.781852e-02	0.0	6.580808e-01	3.796176e-02	0.0	6.555854e-01	3.809962e-02	0.0	6.530899e-01	3.823465e-02	0.0	6.505943e-01	3.836829e-02	0.0	6.480987e-01	3.850119e-02	0.0	6.456031e-01	3.863339e-02	0.0	6.431074e-01	3.876490e-02	0.0	6.406117e-01	3.889573e-02	0.0	6.381159e-01	3.902586e-02	0.0	6.356201e-01	3.915530e-02	0.0	6.331243e-01	3.928401e-02	0.0	6.306284e-01	3.941197e-02	0.0	6.281325e-01	3.953916e-02	0.0	6.256365e-01	3.966553e-02	0.0	6.231406e-01	3.979105e-02	0.0	6.206445e-01	3.991565e-02	0.0	6.181484e-01	4.003928e-02	0.0	6.156523e-01	4.016186e-02	0.0	6.131561e-01	4.028332e-02	0.0	6.106598e-01	4.040356e-02	0.0	6.081635e-01	4.052246e-02	0.0	6.056671e-01	4.063988e-02	0.0	6.031707e-01	4.075566e-02	0.0	6.006741e-01	4.086959e-02	0.0	5.981775e-01	4.098194e-02	0.0	5.956808e-01	4.109386e-02	0.0	5.931842e-01	4.120528e-02	0.0	5.906875e-01	4.131604e-02	0.0	5.881908e-01	4.142599e-02	0.0	5.856940e-01	4.153499e-02	0.0	5.831972e-01	4.164289e-02	0.0	5.807003e-01	4.174954e-02	0.0	5.782034e-01	4.185478e-02	0.0	5.757064e-01	4.195847e-02	0.0	5.732093e-01	4.206046e-02	0.0	5.707122e-01	4.216060e-02	0.0	5.682149e-01	4.225874e-02	0.0	5.657176e-01	4.235473e-02	0.0	5.632202e-01	4.244843e-02	0.0	5.607228e-01	4.253967e-02	0.0	5.582252e-01	4.262832e-02	0.0	5.557275e-01	4.271422e-02	0.0	5.532297e-01	4.279722e-02	0.0	5.507319e-01	4.287717e-02	0.0	5.482339e-01	4.295335e-02	0.0	5.457357e-01	4.302426e-02	0.0	5.432375e-01	4.309033e-02	0.0	5.407391e-01	4.315208e-02	0.0	5.382406e-01	4.321004e-02	0.0	5.357421e-01	4.326471e-02	0.0	5.332434e-01	4.331664e-02	0.0	5.307448e-01	4.336634e-02	0.0	5.282461e-01	4.341433e-02	0.0	5.257474e-01	4.346115e-02	0.0	5.232487e-01	4.350731e-02	0.0	5.207499e-01	4.355333e-02	0.0	5.182512e-01	4.359975e-02	0.0	5.157525e-01	4.364709e-02	0.0	5.132539e-01	4.369586e-02	0.0	5.107552e-01	4.374660e-02	0.0	5.082566e-01	4.379982e-02	0.0	5.057581e-01	4.385606e-02	0.0	5.032597e-01	4.391583e-02	0.0	5.007614e-01	4.397966e-02	0.0	4.982631e-01	4.404807e-02	0.0	4.957651e-01	4.412106e-02	0.0	4.932671e-01	4.419809e-02	0.0	4.907692e-01	4.427859e-02	0.0	4.882715e-01	4.436201e-02	0.0	4.857738e-01	4.444779e-02	0.0	4.832762e-01	4.453535e-02	0.0	4.807786e-01	4.462415e-02	0.0	4.782811e-01	4.471362e-02	0.0	4.757835e-01	4.480321e-02	0.0	4.732860e-01	4.489235e-02	0.0	4.707884e-01	4.498048e-02	0.0	4.682907e-01	4.506704e-02	0.0	4.657930e-01	4.515148e-02	0.0	4.632952e-01	4.523322e-02	0.0	4.607973e-01	4.531172e-02	0.0	4.582993e-01	4.538641e-02	0.0	4.558011e-01	4.545672e-02	0.0	4.533028e-01	4.552210e-02	0.0	4.508044e-01	4.558198e-02	0.0	4.483058e-01	4.563631e-02	0.0	4.458072e-01	4.568647e-02	0.0	4.433085e-01	4.573283e-02	0.0	4.408097e-01	4.577564e-02	0.0	4.383108e-01	4.581518e-02	0.0	4.358120e-01	4.585169e-02	0.0	4.333130e-01	4.588545e-02	0.0	4.308141e-01	4.591671e-02	0.0	4.283151e-01	4.594574e-02	0.0	4.258161e-01	4.597280e-02	0.0	4.233171e-01	4.599815e-02	0.0	4.208180e-01	4.602205e-02	0.0	4.183190e-01	4.604476e-02	0.0	4.158199e-01	4.606656e-02	0.0	4.133209e-01	4.608769e-02	0.0	4.108218e-01	4.610842e-02	0.0	4.083228e-01	4.612902e-02	0.0	4.058237e-01	4.614975e-02	0.0	4.033246e-01	4.617086e-02	0.0	4.008256e-01	4.619262e-02	0.0	3.983265e-01	4.621500e-02	0.0	3.958275e-01	4.623715e-02	0.0	3.933284e-01	4.625892e-02	0.0	3.908294e-01	4.628024e-02	0.0	3.883303e-01	4.630103e-02	0.0	3.858312e-01	4.632123e-02	0.0	3.833322e-01	4.634075e-02	0.0	3.808331e-01	4.635952e-02	0.0	3.783340e-01	4.637747e-02	0.0	3.758349e-01	4.639452e-02	0.0	3.733358e-01	4.641059e-02	0.0	3.708367e-01	4.642562e-02	0.0	3.683376e-01	4.643952e-02	0.0	3.658385e-01	4.645222e-02	0.0	3.633394e-01	4.646365e-02	0.0	3.608402e-01	4.647373e-02	0.0	3.583411e-01	4.648238e-02	0.0	3.558420e-01	4.648954e-02	0.0	3.533428e-01	4.649512e-02	0.0	3.508437e-01	4.649906e-02	0.0	3.483445e-01	4.650138e-02	0.0	3.458454e-01	4.650243e-02	0.0	3.433462e-01	4.650223e-02	0.0	3.408471e-01	4.650078e-02	0.0	3.383479e-01	4.649808e-02	0.0	3.358488e-01	4.649413e-02	0.0	3.333496e-01	4.648893e-02	0.0	3.308505e-01	4.648248e-02	0.0	3.283514e-01	4.647478e-02	0.0	3.258522e-01	4.646584e-02	0.0	3.233531e-01	4.645564e-02	0.0	3.208540e-01	4.644420e-02	0.0	3.183549e-01	4.643150e-02	0.0	3.158558e-01	4.641756e-02	0.0	3.133567e-01	4.640237e-02	0.0	3.108576e-01	4.638593e-02	0.0	3.083585e-01	4.636824e-02	0.0	3.058594e-01	4.634930e-02	0.0	3.033603e-01	4.632911e-02	0.0	3.008613e-01	4.630768e-02	0.0	2.983622e-01	4.628515e-02	0.0	2.958632e-01	4.626200e-02	0.0	2.933641e-01	4.623817e-02	0.0	2.908651e-01	4.621353e-02	0.0	2.883661e-01	4.618799e-02	0.0	2.858671e-01	4.616143e-02	0.0	2.833681e-01	4.613373e-02	0.0	2.808691e-01	4.610478e-02	0.0	2.783702e-01	4.607447e-02	0.0	2.758712e-01	4.604270e-02	0.0	2.733723e-01	4.600933e-02	0.0	2.708734e-01	4.597427e-02	0.0	2.683745e-01	4.593741e-02	0.0	2.658757e-01	4.589862e-02	0.0	2.633768e-01	4.585780e-02	0.0	2.608781e-01	4.581483e-02	0.0	2.583793e-01	4.576960e-02	0.0	2.558806e-01	4.572201e-02	0.0	2.533820e-01	4.567193e-02	0.0	2.508834e-01	4.561926e-02	0.0	2.483848e-01	4.556415e-02	0.0	2.458863e-01	4.550741e-02	0.0	2.433879e-01	4.544906e-02	0.0	2.408894e-01	4.538900e-02	0.0	2.383911e-01	4.532718e-02	0.0	2.358927e-01	4.526351e-02	0.0	2.333944e-01	4.519793e-02	0.0	2.308962e-01	4.513034e-02	0.0	2.283980e-01	4.506069e-02	0.0	2.258999e-01	4.498890e-02	0.0	2.234018e-01	4.491489e-02	0.0	2.209039e-01	4.483859e-02	0.0	2.184060e-01	4.475992e-02	0.0	2.159081e-01	4.467881e-02	0.0	2.134104e-01	4.459518e-02	0.0	2.109127e-01	4.450897e-02	0.0	2.084151e-01	4.442009e-02	0.0	2.059177e-01	4.432847e-02	0.0	2.034203e-01	4.423404e-02	0.0	2.009231e-01	4.413672e-02	0.0	1.984259e-01	4.403650e-02	0.0	1.959289e-01	4.393359e-02	0.0	1.934320e-01	4.382811e-02	0.0	1.909352e-01	4.372013e-02	0.0	1.884384e-01	4.360972e-02	0.0	1.859418e-01	4.349693e-02	0.0	1.834453e-01	4.338178e-02	0.0	1.809490e-01	4.326430e-02	0.0	1.784527e-01	4.314449e-02	0.0	1.759565e-01	4.302235e-02	0.0	1.734605e-01	4.289786e-02	0.0	1.709646e-01	4.277100e-02	0.0	1.684688e-01	4.264170e-02	0.0	1.659731e-01	4.250992e-02	0.0	1.634775e-01	4.237557e-02	0.0	1.609822e-01	4.223856e-02	0.0	1.584869e-01	4.209876e-02	0.0	1.559918e-01	4.195602e-02	0.0	1.534970e-01	4.181016e-02	0.0	1.510023e-01	4.166095e-02	0.0	1.485078e-01	4.150830e-02	0.0	1.460135e-01	4.135261e-02	0.0	1.435194e-01	4.119369e-02	0.0	1.410255e-01	4.103126e-02	0.0	1.385319e-01	4.086503e-02	0.0	1.360386e-01	4.069471e-02	0.0	1.335456e-01	4.052000e-02	0.0	1.310529e-01	4.034059e-02	0.0	1.285605e-01	4.015619e-02	0.0	1.260686e-01	3.996653e-02	0.0	1.235771e-01	3.977132e-02	0.0	1.210860e-01	3.957032e-02	0.0	1.185954e-01	3.936331e-02	0.0	1.161054e-01	3.915010e-02	0.0	1.136159e-01	3.893054e-02	0.0	1.111270e-01	3.870451e-02	0.0	1.086387e-01	3.847177e-02	0.0	1.061512e-01	3.823146e-02	0.0	1.036643e-01	3.798369e-02	0.0	1.011782e-01	3.772865e-02	0.0	9.869287e-02	3.746648e-02	0.0	9.620827e-02	3.719729e-02	0.0	9.372442e-02	3.692112e-02	0.0	9.124137e-02	3.663798e-02	0.0	8.875912e-02	3.634781e-02	0.0	8.627772e-02	3.605050e-02	0.0	8.379721e-02	3.574585e-02	0.0	8.131765e-02	3.543360e-02	0.0	7.883910e-02	3.511337e-02	0.0	7.636167e-02	3.478463e-02	0.0	7.388555e-02	3.444616e-02	0.0	7.141141e-02	3.409353e-02	0.0	6.893949e-02	3.372563e-02	0.0	6.646993e-02	3.334223e-02	0.0	6.400283e-02	3.294327e-02	0.0	6.153828e-02	3.252889e-02	0.0	5.907630e-02	3.209950e-02	0.0	5.661685e-02	3.165585e-02	0.0	5.415979e-02	3.119911e-02	0.0	5.170489e-02	3.073094e-02	0.0	4.925167e-02	3.025400e-02	0.0	4.679885e-02	2.977507e-02	0.0	4.434779e-02	2.928717e-02	0.0	4.190165e-02	2.877527e-02	0.0	3.946461e-02	2.822178e-02	0.0	3.704086e-02	2.761278e-02	0.0	3.463303e-02	2.694363e-02	0.0	3.224134e-02	2.621885e-02	0.0	2.986710e-02	2.543878e-02	0.0	2.750733e-02	2.461591e-02	0.0	2.515848e-02	2.376234e-02	0.0	2.281867e-02	2.288429e-02	0.0	2.048696e-02	2.198492e-02	0.0	1.816319e-02	2.106526e-02	0.0	1.584808e-02	2.012399e-02	0.0	1.354433
[...]
POINT_DATA 1034

SCALARS Density double 1
LOOKUP_TABLE default
1.166741e+00	1.210175e+00	1.177745e+00	1.184753e+00	1.189378e+00	1.200349e+00	1.199283e+00	1.199395e+00	1.199346e+00	1.199178e+00	1.198885e+00	1.198726e+00	1.198774e+00	1.199133e+00	1.199799e+00	1.200377e+00	1.200726e+00	1.200958e+00	1.200528e+00	1.200041e+00	1.199534e+00	1.199235e+00	1.199125e+00	1.199264e+00	1.199623e+00	1.199990e+00	1.200246e+00	1.200490e+00	1.200721e+00	1.200937e+00	1.201126e+00	1.201275e+00	1.201383e+00	1.201214e+00	1.200931e+00	1.200728e+00	1.200671e+00	1.200755e+00	1.200921e+00	1.201100e+00	1.201286e+00	1.201465e+00	1.201636e+00	1.201812e+00	1.201968e+00	1.202094e+00	1.202193e+00	1.202305e+00	1.202401e+00	1.202496e+00	1.202567e+00	1.202619e+00	1.202690e+00	1.202762e+00	1.202832e+00	1.202875e+00	1.202924e+00	1.202964e+00	1.202974e+00	1.203018e+00	1.203044e+00	1.203075e+00	1.203106e+00	1.203132e+00	1.203143e+00	1.203120e+00	1.203017e+00	1.202887e+00	1.202790e+00	1.202835e+00	1.203033e+00	1.203270e+00	1.203465e+00	1.203590e+00	1.203640e+00	1.203697e+00	1.203753e+00	1.203780e+00	1.203806e+00	1.203853e+00	1.203892e+00	1.203918e+00	1.203966e+00	1.204010e+00	1.204015e+00	1.204051e+00	1.204052e+00	1.204087e+00	1.204094e+00	1.204097e+00	1.204125e+00	1.204157e+00	1.204198e+00	1.204226e+00	1.204288e+00	1.204345e+00	1.204345e+00	1.204360e+00	1.204352e+00	1.204345e+00	1.204353e+00	1.204360e+00	1.204363e+00	1.204383e+00	1.204383e+00	1.204393e+00	1.204389e+00	1.204400e+00	1.204400e+00	1.204388e+00	1.204393e+00	1.204440e+00	1.204463e+00	1.204468e+00	1.204510e+00	1.204579e+00	1.204708e+00	1.204824e+00	1.204949e+00	1.205083e+00	1.205200e+00	1.205345e+00	1.205507e+00	1.205650e+00	1.205758e+00	1.205899e+00	1.206017e+00	1.206089e+00	1.206191e+00	1.206281e+00	1.206389e+00	1.206414e+00	1.206455e+00	1.206438e+00	1.206410e+00	1.206323e+00	1.206262e+00	1.206139e+00	1.206038e+00	1.205928e+00	1.205827e+00	1.205708e+00	1.205612e+00	1.205489e+00	1.205394e+00	1.205287e+00	1.205189e+00	1.205079e+00	1.204989e+00	1.204917e+00	1.204874e+00	1.204840e+00	1.204818e+00	1.204844e+00	1.204916e+00	1.204983e+00	1.205033e+00	1.205090e+00	1.205142e+00	1.205191e+00	1.205255e+00	1.205326e+00	1.205393e+00	1.205458e+00	1.205513e+00	1.205546e+00	1.205606e+00	1.205659e+00	1.205713e+00	1.205740e+00	1.205783e+00	1.205796e+00	1.205798e+00	1.205792e+00	1.205768e+00	1.205729e+00	1.205711e+00	1.205713e+00	1.205703e+00	1.205707e+00	1.205692e+00	1.205668e+00	1.205648e+00	1.205587e+00	1.205576e+00	1.205545e+00	1.205518e+00	1.205518e+00	1.205496e+00	1.205487e+00	1.205469e+00	1.205458e+00	1.205467e+00	1.205456e+00	1.205472e+00	1.205459e+00	1.205461e+00	1.205449e+00	1.205457e+00	1.205440e+00	1.205442e+00	1.205419e+00	1.205394e+00	1.205401e+00	1.205396e+00	1.205356e+00	1.205333e+00	1.205342e+00	1.205329e+00	1.205324e+00	1.205303e+00	1.205307e+00	1.205290e+00	1.205302e+00	1.205302e+00	1.205247e+00	1.205217e+00	1.205157e+00	1.205130e+00	1.205082e+00	1.205060e+00	1.205008e+00	1.204990e+00	1.204932e+00	1.204907e+00	1.204847e+00	1.204814e+00	1.204762e+00	1.204737e+00	1.204686e+00	1.204668e+00	1.204600e+00	1.204565e+00	1.204570e+00	1.204574e+00	1.204535e+00	1.204515e+00	1.204476e+00	1.204462e+00	1.204428e+00	1.204376e+00	1.204330e+00	1.204321e+00	1.204291e+00	1.204190e+00	1.204117e+00	1.204098e+00	1.204054e+00	1.203992e+00	1.204013e+00	1.203989e+00	1.203893e+00	1.203834e+00	1.203765e+00	1.203761e+00	1.203709e+00	1.203698e+00	1.203643e+00	1.203612e+00	1.203560e+00	1.203506e+00	1.203436e+00	1.203409e+00	1.203344e+00	1.203333e+00	1.203337e+00	1.203224e+00	1.203136e+00	1.203098e+00	1.202927e+00	1.202787e+00	1.202698e+00	1.202613e+00	1.202496e+00	1.202412e+00	1.202338e+00	1.202206e+00	1.202128e+00	1.202007e+00	1.201950e+00	1.201809e+00	1.201729e+00	1.201553e+00	1.201453e+00	1.201301e+00	1.201218e+00	1.201093e+00	1.200990e+00	1.200975e+00	1.200936e+00	1.200813e+00	1.200589e+00	1.200387e+00	1.200388e+00	1.200319e+00	1.200237e+00	1.200130e+00	1.199886e+00	1.199764e+00	1.199636e+00	1.199515e+00	1.199290e+00	1.198906e+00	1.198525e+00	1.198310e+00	1.198082e+00	1.197980e+00	1.198104e+00	1.198046e+00	1.198047e+00	1.197883e+00	1.197754e+00	1.197787e+00	1.197695e+00	1.197503e+00	1.196596e+00	1.195308e+00	1.194484e+00	1.193992e+00	1.193797e+00	1.193947e+00	1.194508e+00	1.195828e+00	1.196836e+00	1.197441e+00	1.197553e+00	1.197401e+00	1.196316e+00	1.195037e+00	1.192685e+00	1.188823e+00	1.187274e+00	1.199792e+00	1.207297e+00	1.211053e+00	1.223412e+00	1.231131e+00	1.240179e+00	1.247865e+00	1.253939e+00	1.258277e+00	1.261042e+00	1.261125e+00	1.259910e+00	1.260518e+00	1.256040e+00	1.248532e+00	1.243285e+00	1.239558e+00	1.235901e+00	1.233165e+00	1.230836e+00	1.228767e+00	1.228058e+00	1.227886e+00	1.227342e+00	1.226723e+00	1.226207e+00	1.225573e+00	1.225395e+00	1.225102e+00	1.224964e+00	1.224702e+00	1.224360e+00	1.224228e+00	1.224073e+00	1.224001e+00	1.224055e+00	1.224099e+00	1.224013e+00	1.223785e+00	1.223594e+00	1.223448e+00	1.223293e+00	1.223235e+00	1.223074e+00	1.223087e+00	1.223135e+00	1.223144e+00	1.223176e+00	1.223169e+00	1.223195e+00	1.223193e+00	1.223197e+00	1.223136e+00	1.223134e+00	1.223105e+00	1.223090e+00	1.223085e+00	1.223030e+00	1.223020e+00	1.223031e+00	1.223072e+00	1.223087e+00	1.223107e+00	1.223120e+00	1.223127e+00	1.223147e+00	1.223210e+00	1.223237e+00	1.223279e+00	1.223319e+00	1.223378e+00	1.223409e+00	1.223470e+00	1.223514e+00	1.223611e+00	1.223637e+00	1.223649e+00	1.223698e+00	1.223715e+00	1.223773e+00	1.223804e+00	1.223849e+00	1.223860e+00	1.223910e+00	1.223961e+00	1.223976e+00	1.224016e+00	1.224040e+00	1.224082e+00	1.224090e+00	1.224119e+00	1.224146e+00	1.224182e+00	1.224185e+00	1.224214e+00	1.224235e+00	1.224257e+00	1.224280e+00	1.224306e+00	1.224318e+00	1.224345e+00	1.224371e+00	1.224411e+00	1.224451e+00	1.224482e+00	1.224528e+00	1.224563e+00	1.224597e+00	1.224622e+00	1.224660e+00	1.224690e+00	1.224728e+00	1.224785e+00	1.224837e+00	1.224857e+00	1.224857e+00	1.224880e+00	1.224901e+00	1.224929e+00	1.224957e+00	1.225001e+00	1.225047e+00	1.225106e+00	1.225147e+00	1.225177e+00	1.225219e+00	1.225255e+00	1.225301e+00	1.225338e+00	1.225386e+00	1.225427e+00	1.225481e+00	1.225514e+00	1.225564e+00	1.225619e+00	1.225612e+00	1.225668e+00	1.225701e+00	1.225727e+00	1.225769e+00	1.225802e+00	1.225827e+00	1.225863e+00	1.225900e+00	1.225923e+00	1.225950e+00	1.225977e+00	1.226011e+00	1.226040e+00	1.226069e+00	1.226119e+00	1.226157e+00	1.226182e+00	1.226216e+00	1.226247e+00	1.226264e+00	1.226298e+00	1.226330e+00	1.226369e+00	1.226402e+00	1.226437e+00	1.226474e+00	1.226516e+00	1.226546e+00	1.226583e+00	1.226621e+00	1.226657e+00	1.226689e+00	1.226732e+00	1.226767e+00	1.226808e+00	1.226865e+00	1.226904e+00	1.226930e+00	1.226969e+00	1.227004e+00	1.227040e+00	1.227070e+00	1.227095e+00	1.227123e+00	1.227157e+00	1.227188e+00	1.227210e+00	1.227244e+00	1.227276e+00	1.227302e+00	1.227331e+00	1.227357e+00	1.227392e+00	1.227428e+00	1.227463e+00	1.227504e+00	1.227538e+00	1.227566e+00	1.227613e+00	1.227661e+00	1.227701e+00	1.227732e+00	1.227755e+00	1.227805e+00	1.227837e+00	1.227856e+00	1.227865e+00	1.227894e+00	1.227923e+00	1.227948e+00	1.227981e+00	1.228008e+00	1.228039e+00	1.228063e+00	1.228088e+00	1.228108e+00	1.228131e+00	1.228158e+00	1.228211e+00	1.228281e+00	1.228333e+00	1.228384e+00	1.228417e+00	1.228452e+00	1.228473e+00	1.228485e+00	1.228509e+00	1.228529e+00	1.228542e+00	1.228568e+00	1.228586e+00	1.228613e+00	1.228657e+00	1.228683e+00	1.228708e+00	1.228733e+00	1.228768e+00	1.228788e+00	1.228872e+00	1.228971e+00	1.229058e+00	1.229117e+00	1.229164e+00	1.229206e+00	1.229253e+00	1.229288e+00	1.229326e+00	1.229332e+00	1.229351e+00	1.229372e+00	1.229434e+00	1.229451e+00	1.229496e+00	1.229541e+00	1.229564e+00	1.229617e+00	1.229623e+00	1.229717e+00	1.229791e+00	1.229810e+00	1.229872e+00	1.230003e+00	1.230167e+00	1.230284e+00	1.230421e+00	1.230546e+00	1.230669e+00	1.230830e+00	1.230930e+00	1.231053e+00	1.231213e+00	1.231352e+00	1.231544e+00	1.231615e+00	1.231784e+00	1.231944e+00	1.232072e+00	1.232250e+00	1.232331e+00	1.232246e+00	1.232177e+00	1.232122e+00	1.232127e+00	1.232460e+00	1.232947e+00	1.233444e+00	1.234220e+00	1.236540e+00	1.193331e+00	1.204995e+00	1.208801e+00	1.211321e+00	1.213024e+00	1.213471e+00	1.213468e+00	1.213893e+00	1.214293e+00	1.214772e+00	1.214996e+00	1.215436e+00	1.215699e+00	1.215865e+00	1.216080e+00	1.216178e+00	1.216417e+00	1.216845e+00	1.217199e+00	1.217666e+00	1.218020e+00	1.218145e+00	1.218332e+00	1.218436e+00	1.218769e+00	1.219114e+00	1.219337e+00	1.219582e+00	1.219862e+00	1.220123e+00	1.220232e+00	1.220329e+00	1.220686e+00	1.220808e+00	1.220935e+00	1.221137e+00	1.221294e+00	1.221545e+00	1.221796e+00	1.221932e+00	1.222084e+00	1.222307e+00	1.222413e+00	1.222542e+00	1.222797e+00	1.222807e+00	1.222902e+00	1.223327e+00	1.223449e+00	1.223743e+00	1.223966e+00	1.224118e+00	1.224327e+00	1.224734e+00	1.225083e+00	1.225053e+00	1.225353e+00	1.225552e+00	1.225488e+00	1.225522e+00	1.225747e+00	1.225424e+00	1.225342e+00	1.226499e+00	1.224833e+00	1.223401e+00	1.221800e+00	1.219819e+00	1.216903e+00	1.215013e+00	1.213808e+00	1.211607e+00	1.211817e+00	1.211808e+00	1.211502e+00	1.210269e+00	1.207318e+00	1.204865e+00	1.204690e+00	1.205713e+00	1.206697e+00	1.207339e+00	1.207712e+00	1.207785e+00	1.207768e+00	1.207729e+00	1.207660e+00	1.207534e+00	1.207273e+00	1.206926e+00	1.206451e+00	1.206081e+00	1.205707e+00	1.205343e+00	1.204992e+00	1.204694e+00	1.204288e+00	1.203961e+00	1.203653e+00	1.203311e+00	1.202952e+00	1.202611e+00	1.202332e+00	1.202074e+00	1.201858e+00	1.201536e+00	1.201178e+00	1.200712e+00	1.200399e+00	1.200058e+00	1.199722e+00	1.199300e+00	1.198940e+00	1.198505e+00	1.198017e+00	1.197651e+00	1.197238e+00	1.196807e+00	1.196279e+00	1.195834e+00	1.195367e+00	1.194898e+00	1.194334e+00	1.193803e+00	1.193208e+00	1.192709e+00	1.192163e+00	1.191669e+00	1.191126e+00	1.190570e+00	1.189924e+00	1.189225e+00	1.188334e+00	1.187446e+00	1.186596e+00	1.185782e+00	1.185177e+00	1.184697e+00	1.184231e+00	1.183724e+00	1.182920e+00	1.182089e+00	1.181015e+00	1.180125e+00	1.179448e+00	1.178778e+00	1.178234e+00	1.177725e+00	1.177719e+00	1.177578e+00	1.177544e+00	1.177444e+00	1.177428e+00	1.177316e+00	1.177052e+00	1.176730e+00	1.176310e+00	1.175931e+00	1.175529e+00	1.175099e+00	1.174688e+00	1.174314e+00	1.173949e+00	1.173506e+00	1.173290e+00	1.172739e+00	1.172242e+00	1.171890e+00	1.171143e+00	1.170440e+00	1.169868e+00	1.168987e+00	1.168430e+00	1.168015e+00	1.167772e+00	1.168003e+00	1.168230e+00	1.168188e+00	1.167896e+00	1.167449e+00	1.167210e+00	1.166726e+00	1.166141e+00	1.165689e+00	1.165294e+00	1.164904e+00	1.164647e+00	1.165046e+00	1.165797e+00	1.166427e+00	1.168185e+00	1.168918e+00	1.169980e+00	1.170040e+00	1.169677e+00	1.170271e+00	1.172198e+00	1.174907e+00	1.177211e+00	1.178451e+00	1.178252e+00	1.177542e+00	1.182804e+00	1.187551e+00	1.191383e+00	1.196568e+00	1.199345e+00	1.204609e+00	1.211529e+00	1.217372e+00	1.221209e+00	1.226263e+00	1.233730e+00	1.238817e+00	1.238344e+00	1.237406e+00	1.237082e+00	1.236812e+00	1.237007e+00	1.236986e+00	1.237365e+00	1.237352e+00	1.237302e+00	1.237419e+00	1.237628e+00	1.237614e+00	1.237649e+00	1.237698e+00	1.237627e+00	1.237718e+00	1.237797e+00	1.237806e+00	1.237754e+00	1.237826e+00	1.237867e+00	1.237850e+00	1.237823e+00	1.237833e+00	1.237896e+00	1.237903e+00	1.238027e+00	1.238043e+00	1.237963e+00	1.237981e+00	1.237986e+00	1.237998e+00	1.238102e+00	1.238134e+00	1.238100e+00	1.238049e+00	1.238120e+00	1.238085e+00	1.238052e+00	1.237991e+00	1.238013e+00	1.237976e+00	1.237933e+00	1.237895e+00	1.237947e+00	1.237931e+00	1.237862e+00	1.237814e+00	1.237792e+00	1.237767e+00	1.237850e+00	1.237888e+00	1.237862e+00	1.237813e+00	1.237822e+00	1.237767e+00	1.237793e+00	1.237724e+00	1.237691e+00	1.237677e+00	1.237597e+00	1.237608e+00	1.237583e+00	1.237563e+00	1.237568e+00	1.237558e+00	1.237582e+00	1.237518e+00	1.237498e+00	1.237530e+00	1.237504e+00	1.237406e+00	1.237396e+00	1.237409e+00	1.237368e+00	1.237341e+00	1.237329e+00	1.237290e+00	1.237319e+00	1.237302e+00	1.237268e+00	1.237200e+00	1.237227e+00	1.237204e+00	1.237186e+00	1.237221e+00	1.237157e+00	1.237075e+00	1.237047e+00	1.237031e+00	1.237014e+00	1.237016e+00	1.236962e+00	1.236949e+00	1.236969e+00	1.236959e+00	1.236894e+00	1.236845e+00	1.236863e+00	1.236816e+00	1.236793e+00	1.236761e+00	1.236742e+00	1.236774e+00	1.236763e+00	1.236720e+00	1.236681e+00	1.236693e+00	1.236651e+00	1.236619e+00	1.236623e+00	1.236577e+00	1.236526e+00	1.236514e+00	1.236496e+00	1.236475e+00	1.236481e+00	1.236448e+00	1.236400e+00	1.236362e+00	1.236361e+00	1.236305e+00	1.236266e+00	1.236227e+00	1.236171e+00	1.236164e+00	1.236137e+00	1.236092e+00	1.236057e+00	1.235998e+00	1.235999e+00	1.235994e+00	1.235939e+00	1.235907e+00	1.235871e+00	1.235857e+00	1.235810e+00	1.235779e+00	1.235734e+00	1.235720e+00	1.235686e+00	1.235667e+00	1.235657e+00	1.235612e+00	1.235642e+00	1.235640e+00	1.235614e+00	1.235563e+00	1.235552e+00	1.235513e+00	1.235440e+00	1.235459e+00	1.235370e+00	1.235270e+00	1.235210e+00	1.235162e+00	1.235105e+00	1.235057e+00	1.234975e+00	1.234915e+00	1.234841e+00	1.234774e+00	1.234789e+00	1.234832e+00	1.234873e+00	1.234818e+00	1.234752e+00	1.234675e+00	1.234785e+00	1.234614e+00	1.234561e+00	1.234446e+00	1.234295e+00	1.234193e+00	1.234034e+00	1.233860e+00	1.233736e+00	1.233818e+00	1.233800e+00	1.233745e+00	1.233680e+00	1.233595e+00	1.233522e+00	1.233404e+00	1.233349e+00	1.233312e+00	1.233073e+00	1.232941e+00	1.233018e+00	1.233142e+00	1.233100e+00	1.233020e+00	1.232759e+00	1.232405e+00	1.231870e+00	1.231246e+00	1.231550e+00	1.232124e+00	1.235552e+00	1.139105e+00	1.161575e+00	1.169978e+00	1.173254e+00	1.163784e+00	
VECTORS Momentum double