# vtk DataFile Version 3.0
vtk output
ASCII
DATASET UNSTRUCTURED_GRID
POINTS 859 double
8.250000e-01	2.490000e-02	0.0	6.750000e-01	-2.870000e-02	0.0	8.250000e-01	2.410000e-02	0.0	1.044520e+00	-1.740390e-01	0.0	1.037880e+00	-1.812280e-01	0.0	8.225136e-01	2.515232e-02	0.0	8.200260e-01	2.539252e-02	0.0	8.175378e-01	2.562525e-02	0.0	8.150494e-01	2.585730e-02	0.0	8.125613e-01	2.609165e-02	0.0	8.100736e-01	2.633135e-02	0.0	8.075861e-01	2.657236e-02	0.0	8.050983e-01	2.680983e-02	0.0	8.026098e-01	2.704006e-02	0.0	8.001202e-01	2.725873e-02	0.0	7.976299e-01	2.746874e-02	0.0	7.951395e-01	2.767761e-02	0.0	7.926495e-01	2.789148e-02	0.0	7.901604e-01	2.811515e-02	0.0	7.876726e-01	2.835330e-02	0.0	7.851860e-01	2.860319e-02	0.0	7.826998e-01	2.885676e-02	0.0	7.802132e-01	2.910705e-02	0.0	7.777258e-01	2.934887e-02	0.0	7.752372e-01	2.957879e-02	0.0	7.727477e-01	2.979747e-02	0.0	7.702575e-01	3.000941e-02	0.0	7.677670e-01	3.021649e-02	0.0	7.652761e-01	3.042027e-02	0.0	7.627851e-01	3.062199e-02	0.0	7.602941e-01	3.082274e-02	0.0	7.578030e-01	3.102339e-02	0.0	7.553119e-01	3.122471e-02	0.0	7.528212e-01	3.142976e-02	0.0	7.503311e-01	3.164143e-02	0.0	7.478411e-01	3.185610e-02	0.0	7.453511e-01	3.206905e-02	0.0	7.428606e-01	3.227672e-02	0.0	7.403695e-01	3.247765e-02	0.0	7.378779e-01	3.267186e-02	0.0	7.353859e-01	3.286004e-02	0.0	7.328934e-01	3.304304e-02	0.0	7.304007e-01	3.322165e-02	0.0	7.279077e-01	3.339668e-02	0.0	7.254145e-01	3.356925e-02	0.0	7.229212e-01	3.374009e-02	0.0	7.204278e-01	3.390963e-02	0.0	7.179343e-01	3.407814e-02	0.0	7.154408e-01	3.424580e-02	0.0	7.129472e-01	3.441275e-02	0.0	7.104536e-01	3.457908e-02	0.0	7.079600e-01	3.474488e-02	0.0	7.054663e-01	3.491018e-02	0.0	7.029726e-01	3.507505e-02	0.0	7.004789e-01	3.523952e-02	0.0	6.979851e-01	3.540361e-02	0.0	6.954913e-01	3.556734e-02	0.0	6.929975e-01	3.573075e-02	0.0	6.905037e-01	3.589382e-02	0.0	6.880099e-01	3.605658e-02	0.0	6.855160e-01	3.621902e-02	0.0	6.830221e-01	3.638113e-02	0.0	6.805282e-01	3.654289e-02	0.0	6.780343e-01	3.670427e-02	0.0	6.755403e-01	3.686520e-02	0.0	6.730464e-01	3.702597e-02	0.0	6.705524e-01	3.718730e-02	0.0	6.680585e-01	3.734890e-02	0.0	6.655645e-01	3.750979e-02	0.0	6.630704e-01	3.766751e-02	0.0	6.605758e-01	3.781852e-02	0.0	6.580807e-01	3.796176e-02	0.0	6.555854e-01	3.809963e-02	0.0	6.530899e-01	3.823465e-02	0.0	6.505943e-01	3.836829e-02	0.0	6.480987e-01	3.850119e-02	0.0	6.456031e-01	3.863339e-02	0.0	6.431074e-01	3.876490e-02	0.0	6.406117e-01	3.889573e-02	0.0	6.381159e-01	3.902586e-02	0.0	6.356201e-01	3.915530e-02	0.0	6.331243e-01	3.928401e-02	0.0	6.306284e-01	3.941197e-02	0.0	6.281325e-01	3.953916e-02	0.0	6.256365e-01	3.966553e-02	0.0	6.231406e-01	3.979105e-02	0.0	6.206445e-01	3.991565e-02	0.0	6.181484e-01	4.003928e-02	0.0	6.156523e-01	4.016186e-02	0.0	6.131561e-01	4.028332e-02	0.0	6.106598e-01	4.040356e-02	0.0	6.081635e-01	4.052246e-02	0.0	6.056671e-01	4.063988e-02	0.0	6.031707e-01	4.075566e-02	0.0	6.006741e-01	4.086959e-02	0.0	5.981775e-01	4.098194e-02	0.0	5.956808e-01	4.109386e-02	0.0	5.931842e-01	4.120528e-02	0.0	5.906875e-01	4.131604e-02	0.0	5.881908e-01	4.142599e-02	0.0	5.856940e-01	4.153499e-02	0.0	5.831972e-01	4.164289e-02	0.0	5.807003e-01	4.174954e-02	0.0	5.782034e-01	4.185478e-02	0.0	5.757064e-01	4.195847e-02	0.0	5.732093e-01	4.206046e-02	0.0	5.707122e-01	4.216060e-02	0.0	5.682149e-01	4.225874e-02	0.0	5.657176e-01	4.235473e-02	0.0	5.632202e-01	4.244843e-02	0.0	5.607228e-01	4.253967e-02	0.0	5.582252e-01	4.262832e-02	0.0	5.557275e-01	4.271422e-02	0.0	5.532297e-01	4.279722e-02	0.0	5.507319e-01	4.287717e-02	0.0	5.482339e-01	4.295335e-02	0.0	5.457357e-01	4.302426e-02	0.0	5.432375e-01	4.309033e-02	0.0	5.407391e-01	4.315208e-02	0.0	5.382406e-01	4.321004e-02	0.0	5.357421e-01	4.326471e-02	0.0	5.332434e-01	4.331664e-02	0.0	5.307448e-01	4.336634e-02	0.0	5.282461e-01	4.341433e-02	0.0	5.257474e-01	4.346115e-02	0.0	5.232487e-01	4.350731e-02	0.0	5.207499e-01	4.355333e-02	0.0	5.182512e-01	4.359975e-02	0.0	5.157525e-01	4.364709e-02	0.0	5.132539e-01	4.369586e-02	0.0	5.107552e-01	4.374660e-02	0.0	5.082566e-01	4.379982e-02	0.0	5.057581e-01	4.385606e-02	0.0	5.032597e-01	4.391583e-02	0.0	5.007614e-01	4.397966e-02	0.0	4.982631e-01	4.404807e-02	0.0	4.957651e-01	4.412106e-02	0.0	4.932671e-01	4.419809e-02	0.0	4.907692e-01	4.427859e-02	0.0	4.882715e-01	4.436201e-02	0.0	4.857738e-01	4.444779e-02	0.0	4.832762e-01	4.453535e-02	0.0	4.807786e-01	4.462415e-02	0.0	4.782811e-01	4.471362e-02	0.0	4.757835e-01	4.480321e-02	0.0	4.732860e-01	4.489235e-02	0.0	4.707884e-01	4.498048e-02	0.0	4.682907e-01	4.506704e-02	0.0	4.657930e-01	4.515148e-02	0.0	4.632952e-01	4.523322e-02	0.0	4.607973e-01	4.531172e-02	0.0	4.582993e-01	4.538641e-02	0.0	4.558011e-01	4.545672e-02	0.0	4.533028e-01	4.552210e-02	0.0	4.508044e-01	4.558198e-02	0.0	4.483058e-01	4.563631e-02	0.0	4.458072e-01	4.568647e-02	0.0	4.433085e-01	4.573283e-02	0.0	4.408097e-01	4.577564e-02	0.0	4.383108e-01	4.581518e-02	0.0	4.358120e-01	4.585169e-02	0.0	4.333130e-01	4.588545e-02	0.0	4.308141e-01	4.591671e-02	0.0	4.283151e-01	4.594574e-02	0.0	4.258161e-01	4.597280e-02	0.0	4.233171e-01	4.599815e-02	0.0	4.208180e-01	4.602205e-02	0.0	4.183190e-01	4.604476e-02	0.0	4.158199e-01	4.606656e-02	0.0	4.133209e-01	4.608769e-02	0.0	4.108218e-01	4.610842e-02	0.0	4.083228e-01	4.612902e-02	0.0	4.058237e-01	4.614975e-02	0.0	4.033246e-01	4.617086e-02	0.0	4.008256e-01	4.619262e-02	0.0	3.983265e-01	4.621500e-02	0.0	3.958275e-01	4.623715e-02	0.0	3.933284e-01	4.625892e-02	0.0	3.908294e-01	4.628024e-02	0.0	3.883303e-01	4.630103e-02	0.0	3.858312e-01	4.632123e-02	0.0	3.833322e-01	4.634075e-02	0.0	3.808331e-01	4.635952e-02	0.0	3.783340e-01	4.637747e-02	0.0	3.758349e-01	4.639452e-02	0.0	3.733358e-01	4.641059e-02	0.0	3.708367e-01	4.642562e-02	0.0	3.683376e-01	4.643952e-02	0.0	3.658385e-01	4.645222e-02	0.0	3.633394e-01	4.646365e-02	0.0	3.608402e-01	4.647373e-02	0.0	3.583411e-01	4.648238e-02	0.0	3.558420e-01	4.648954e-02	0.0	3.533428e-01	4.649512e-02	0.0	3.508437e-01	4.649906e-02	0.0	3.483445e-01	4.650138e-02	0.0	3.458454e-01	4.650243e-02	0.0	3.433462e-01	4.650223e-02	0.0	3.408471e-01	4.650078e-02	0.0	3.383479e-01	4.649807e-02	0.0	3.358488e-01	4.649413e-02	0.0	3.333496e-01	4.648893e-02	0.0	3.308505e-01	4.648248e-02	0.0	3.283514e-01	4.647478e-02	0.0	3.258522e-01	4.646584e-02	0.0	3.233531e-01	4.645564e-02	0.0	3.208540e-01	4.644420e-02	0.0	3.183549e-01	4.643150e-02	0.0	3.158558e-01	4.641756e-02	0.0	3.133567e-01	4.640237e-02	0.0	3.108576e-01	4.638593e-02	0.0	3.083585e-01	4.636824e-02	0.0	3.058594e-01	4.634930e-02	0.0	3.033603e-01	4.632911e-02	0.0	3.008613e-01	4.630768e-02	0.0	2.983622e-01	4.628515e-02	0.0	2.958632e-01	4.626200e-02	0.0	2.933641e-01	4.623817e-02	0.0	2.908651e-01	4.621353e-02	0.0	2.883661e-01	4.618799e-02	0.0	2.858671e-01	4.616143e-02	0.0	2.833681e-01	4.613373e-02	0.0	2.808691e-01	4.610478e-02	0.0	2.783702e-01	4.607447e-02	0.0	2.758712e-01	4.604270e-02	0.0	2.733723e-01	4.600933e-02	0.0	2.708734e-01	4.597427e-02	0.0	2.683745e-01	4.593741e-02	0.0	2.658757e-01	4.589862e-02	0.0	2.633768e-01	4.585780e-02	0.0	2.608781e-01	4.581483e-02	0.0	2.583793e-01	4.576960e-02	0.0	2.558806e-01	4.572201e-02	0.0	2.533820e-01	4.567193e-02	0.0	2.508834e-01	4.561926e-02	0.0	2.483848e-01	4.556415e-02	0.0	2.458863e-01	4.550741e-02	0.0	2.433879e-01	4.544906e-02	0.0	2.408894e-01	4.538900e-02	0.0	2.383911e-01	4.532718e-02	0.0	2.358927e-01	4.526351e-02	0.0	2.333944e-01	4.519792e-02	0.0	2.308962e-01	4.513034e-02	0.0	2.283980e-01	4.506069e-02	0.0	2.258999e-01	4.498890e-02	0.0	2.234018e-01	4.491489e-02	0.0	2.209039e-01	4.483859e-02	0.0	2.184060e-01	4.475992e-02	0.0	2.159081e-01	4.467881e-02	0.0	2.134104e-01	4.459518e-02	0.0	2.109127e-01	4.450897e-02	0.0	2.084151e-01	4.442009e-02	0.0	2.059177e-01	4.432847e-02	0.0	2.034203e-01	4.423404e-02	0.0	2.009231e-01	4.413672e-02	0.0	1.984259e-01	4.403650e-02	0.0	1.959289e-01	4.393359e-02	0.0	1.934320e-01	4.382811e-02	0.0	1.909352e-01	4.372013e-02	0.0	1.884384e-01	4.360972e-02	0.0	1.859418e-01	4.349693e-02	0.0	1.834453e-01	4.338178e-02	0.0	1.809490e-01	4.326430e-02	0.0	1.784527e-01	4.314449e-02	0.0	1.759565e-01	4.302235e-02	0.0	1.734605e-01	4.289786e-02	0.0	1.709646e-01	4.277100e-02	0.0	1.684687e-01	4.264170e-02	0.0	1.659731e-01	4.250992e-02	0.0	1.634775e-01	4.237557e-02	0.0	1.609822e-01	4.223856e-02	0.0	1.584869e-01	4.209876e-02	0.0	1.559918e-01	4.195602e-02	0.0	1.534970e-01	4.181016e-02	0.0	1.510023e-01	4.166095e-02	0.0	1.485078e-01	4.150830e-02	0.0	1.460135e-01	4.135261e-02	0.0	1.435194e-01	4.119369e-02	0.0	1.410255e-01	4.103126e-02	0.0	1.385319e-01	4.086503e-02	0.0	1.360386e-01	4.069471e-02	0.0	1.335456e-01	4.052000e-02	0.0	1.310529e-01	4.034059e-02	0.0	1.285605e-01	4.015619e-02	0.0	1.260686e-01	3.996653e-02	0.0	1.235771e-01	3.977132e-02	0.0	1.210860e-01	3.957032e-02	0.0	1.185954e-01	3.936331e-02	0.0	1.161054e-01	3.915010e-02	0.0	1.136159e-01	3.893054e-02	0.0	1.111270e-01	3.870451e-02	0.0	1.086387e-01	3.847177e-02	0.0	1.061512e-01	3.823146e-02	0.0	1.036643e-01	3.798369e-02	0.0	1.011782e-01	3.772865e-02	0.0	9.869287e-02	3.746648e-02	0.0	9.620826e-02	3.719729e-02	0.0	9.372442e-02	3.692112e-02	0.0	9.124136e-02	3.663798e-02	0.0	8.875912e-02	3.634781e-02	0.0	8.627772e-02	3.605050e-02	0.0	8.379721e-02	3.574585e-02	0.0	8.131764e-02	3.543360e-02	0.0	7.883910e-02	3.511337e-02	0.0	7.636167e-02	3.478463e-02	0.0	7.388555e-02	3.444616e-02	0.0	7.141140e-02	3.409353e-02	0.0	6.893949e-02	3.372563e-02	0.0	6.646993e-02	3.334223e-02	0.0	6.400283e-02	3.294327e-02	0.0	6.153828e-02	3.252889e-02	0.0	5.907630e-02	3.209950e-02	0.0	5.661685e-02	3.165585e-02	0.0	5.415979e-02	3.119911e-02	0.0	5.170489e-02	3.073094e-02	0.0	4.925167e-02	3.025400e-02	0.0	4.679885e-02	2.977507e-02	0.0	4.434779e-02	2.928717e-02	0.0	4.190165e-02	2.877527e-02	0.0	3.946460e-02	2.822178e-02	0.0	3.704086e-02	2.761278e-02	0.0	3.463302e-02	2.694363e-02	0.0	3.224133e-02	2.621885e-02	0.0	2.986710e-02	2.543878e-02	0.0	2.750733e-02	2.461591e-02	0.0	2.515848e-02	2.376234e-02	0.0	2.281867e-02	2.288429e-02	0.0	2.048696e-02	2.198492e-02	0.0	1.816319e-02	2.106526e-02	0.0	1.584808e-02	2.012399e-02	0.0	1.354433e
[...]
POINT_DATA 859

SCALARS Density double 1
LOOKUP_TABLE default
1.142634e+00	1.221409e+00	1.158162e+00	1.180158e+00	1.180328e+00	1.183799e+00	1.182550e+00	1.182653e+00	1.183034e+00	1.183141e+00	1.183138e+00	1.183264e+00	1.183556e+00	1.183954e+00	1.184564e+00	1.185053e+00	1.185311e+00	1.185487e+00	1.185340e+00	1.184997e+00	1.184604e+00	1.184404e+00	1.184369e+00	1.184509e+00	1.184782e+00	1.185098e+00	1.185311e+00	1.185550e+00	1.185697e+00	1.185794e+00	1.185955e+00	1.186042e+00	1.186110e+00	1.185992e+00	1.185756e+00	1.185596e+00	1.185579e+00	1.185658e+00	1.185749e+00	1.185840e+00	1.185889e+00	1.186012e+00	1.186114e+00	1.186204e+00	1.186273e+00	1.186361e+00	1.186424e+00	1.186490e+00	1.186517e+00	1.186547e+00	1.186539e+00	1.186584e+00	1.186580e+00	1.186586e+00	1.186600e+00	1.186658e+00	1.186637e+00	1.186628e+00	1.186655e+00	1.186622e+00	1.186620e+00	1.186580e+00	1.186553e+00	1.186563e+00	1.186528e+00	1.186426e+00	1.186351e+00	1.186202e+00	1.186039e+00	1.185986e+00	1.186190e+00	1.186270e+00	1.186302e+00	1.186364e+00	1.186360e+00	1.186364e+00	1.186311e+00	1.186306e+00	1.186269e+00	1.186262e+00	1.186215e+00	1.186215e+00	1.186172e+00	1.186133e+00	1.186123e+00	1.186099e+00	1.186054e+00	1.186036e+00	1.185999e+00	1.185973e+00	1.185976e+00	1.185949e+00	1.185949e+00	1.185937e+00	1.185966e+00	1.185958e+00	1.185891e+00	1.185847e+00	1.185830e+00	1.185758e+00	1.185711e+00	1.185635e+00	1.185576e+00	1.185555e+00	1.185511e+00	1.185430e+00	1.185431e+00	1.185401e+00	1.185331e+00	1.185282e+00	1.185305e+00	1.185223e+00	1.185183e+00	1.185113e+00	1.185085e+00	1.185068e+00	1.185103e+00	1.185177e+00	1.185186e+00	1.185242e+00	1.185275e+00	1.185286e+00	1.185337e+00	1.185371e+00	1.185362e+00	1.185377e+00	1.185420e+00	1.185432e+00	1.185468e+00	1.185479e+00	1.185456e+00	1.185444e+00	1.185396e+00	1.185317e+00	1.185241e+00	1.185135e+00	1.185004e+00	1.184888e+00	1.184790e+00	1.184560e+00	1.184405e+00	1.184296e+00	1.184094e+00	1.183969e+00	1.183811e+00	1.183614e+00	1.183468e+00	1.183337e+00	1.183199e+00	1.183086e+00	1.183007e+00	1.182913e+00	1.182867e+00	1.182811e+00	1.182810e+00	1.182734e+00	1.182694e+00	1.182624e+00	1.182602e+00	1.182575e+00	1.182555e+00	1.182514e+00	1.182494e+00	1.182436e+00	1.182422e+00	1.182383e+00	1.182340e+00	1.182324e+00	1.182303e+00	1.182239e+00	1.182190e+00	1.182157e+00	1.182066e+00	1.182000e+00	1.181854e+00	1.181742e+00	1.181644e+00	1.181529e+00	1.181463e+00	1.181359e+00	1.181293e+00	1.181204e+00	1.181089e+00	1.180993e+00	1.180951e+00	1.180861e+00	1.180711e+00	1.180626e+00	1.180524e+00	1.180397e+00	1.180285e+00	1.180134e+00	1.180053e+00	1.179987e+00	1.179848e+00	1.179738e+00	1.179655e+00	1.179472e+00	1.179375e+00	1.179225e+00	1.179160e+00	1.179013e+00	1.178928e+00	1.178816e+00	1.178697e+00	1.178542e+00	1.178425e+00	1.178265e+00	1.178196e+00	1.178047e+00	1.177932e+00	1.177736e+00	1.177635e+00	1.177484e+00	1.177374e+00	1.177280e+00	1.177142e+00	1.177050e+00	1.176889e+00	1.176774e+00	1.176585e+00	1.176440e+00	1.176174e+00	1.176019e+00	1.175900e+00	1.175747e+00	1.175636e+00	1.175462e+00	1.175322e+00	1.175125e+00	1.174971e+00	1.174733e+00	1.174591e+00	1.174483e+00	1.174327e+00	1.174212e+00	1.173998e+00	1.173854e+00	1.173642e+00	1.173520e+00	1.173331e+00	1.173178e+00	1.172925e+00	1.172781e+00	1.172559e+00	1.172267e+00	1.172010e+00	1.171848e+00	1.171565e+00	1.171387e+00	1.171105e+00	1.170940e+00	1.170755e+00	1.170498e+00	1.170298e+00	1.170148e+00	1.169885e+00	1.169724e+00	1.169489e+00	1.169145e+00	1.168964e+00	1.168689e+00	1.168329e+00	1.168012e+00	1.167753e+00	1.167421e+00	1.167216e+00	1.166851e+00	1.166442e+00	1.166197e+00	1.165866e+00	1.165379e+00	1.165101e+00	1.164672e+00	1.164412e+00	1.164013e+00	1.163677e+00	1.163205e+00	1.162815e+00	1.162274e+00	1.161939e+00	1.161503e+00	1.161207e+00	1.160724e+00	1.160355e+00	1.159875e+00	1.159517e+00	1.158857e+00	1.158468e+00	1.157798e+00	1.157276e+00	1.156634e+00	1.156082e+00	1.155501e+00	1.154982e+00	1.154394e+00	1.153607e+00	1.153181e+00	1.152443e+00	1.151906e+00	1.151009e+00	1.150290e+00	1.149398e+00	1.148623e+00	1.147503e+00	1.146317e+00	1.145463e+00	1.144778e+00	1.143709e+00	1.142773e+00	1.141540e+00	1.140654e+00	1.139400e+00	1.137946e+00	1.136642e+00	1.134455e+00	1.131878e+00	1.128938e+00	1.126265e+00	1.123857e+00	1.122695e+00	1.121485e+00	1.120784e+00	1.119814e+00	1.118781e+00	1.117023e+00	1.113668e+00	1.108976e+00	1.102472e+00	1.092253e+00	1.077356e+00	1.067732e+00	1.080593e+00	1.086594e+00	1.087042e+00	1.103899e+00	1.116264e+00	1.132762e+00	1.152060e+00	1.167055e+00	1.188468e+00	1.205144e+00	1.216362e+00	1.228086e+00	1.237431e+00	1.244393e+00	1.250420e+00	1.253393e+00	1.253425e+00	1.252997e+00	1.252118e+00	1.251631e+00	1.251086e+00	1.251309e+00	1.250758e+00	1.250718e+00	1.250446e+00	1.249832e+00	1.249581e+00	1.249003e+00	1.248953e+00	1.248542e+00	1.247878e+00	1.247822e+00	1.247407e+00	1.246992e+00	1.247087e+00	1.246809e+00	1.246448e+00	1.246120e+00	1.246110e+00	1.245786e+00	1.245315e+00	1.245127e+00	1.244910e+00	1.244595e+00	1.244426e+00	1.244160e+00	1.244054e+00	1.243917e+00	1.243606e+00	1.243379e+00	1.243195e+00	1.243037e+00	1.242884e+00	1.242780e+00	1.242606e+00	1.242499e+00	1.242367e+00	1.242160e+00	1.242031e+00	1.241885e+00	1.241758e+00	1.241714e+00	1.241583e+00	1.241414e+00	1.241330e+00	1.241231e+00	1.241152e+00	1.241125e+00	1.241025e+00	1.240902e+00	1.240810e+00	1.240765e+00	1.240651e+00	1.240591e+00	1.240534e+00	1.240437e+00	1.240345e+00	1.240268e+00	1.240236e+00	1.240131e+00	1.240042e+00	1.239974e+00	1.239906e+00	1.239841e+00	1.239781e+00	1.239741e+00	1.239663e+00	1.239590e+00	1.239527e+00	1.239468e+00	1.239408e+00	1.239371e+00	1.239304e+00	1.239258e+00	1.239193e+00	1.239098e+00	1.239054e+00	1.238996e+00	1.238941e+00	1.238889e+00	1.238853e+00	1.238840e+00	1.238769e+00	1.238726e+00	1.238707e+00	1.238657e+00	1.238612e+00	1.238587e+00	1.238554e+00	1.238521e+00	1.238491e+00	1.238451e+00	1.238414e+00	1.238392e+00	1.238338e+00	1.238278e+00	1.238242e+00	1.238210e+00	1.238185e+00	1.238158e+00	1.238130e+00	1.238118e+00	1.238095e+00	1.238065e+00	1.238043e+00	1.238031e+00	1.238016e+00	1.238016e+00	1.237997e+00	1.237980e+00	1.237967e+00	1.237966e+00	1.237955e+00	1.237944e+00	1.237925e+00	1.237891e+00	1.237855e+00	1.237834e+00	1.237821e+00	1.237810e+00	1.237782e+00	1.237757e+00	1.237736e+00	1.237712e+00	1.237701e+00	1.237681e+00	1.237674e+00	1.237659e+00	1.237641e+00	1.237619e+00	1.237603e+00	1.237588e+00	1.237570e+00	1.237559e+00	1.237544e+00	1.237522e+00	1.237507e+00	1.237497e+00	1.237482e+00	1.237471e+00	1.237462e+00	1.237451e+00	1.237439e+00	1.237438e+00	1.237435e+00	1.237430e+00	1.237425e+00	1.237421e+00	1.237422e+00	1.237418e+00	1.237416e+00	1.237414e+00	1.237415e+00	1.237412e+00	1.237412e+00	1.237409e+00	1.237404e+00	1.237398e+00	1.237397e+00	1.237396e+00	1.237391e+00	1.237382e+00	1.237377e+00	1.237375e+00	1.237369e+00	1.237365e+00	1.237360e+00	1.237355e+00	1.237354e+00	1.237358e+00	1.237357e+00	1.237347e+00	1.237342e+00	1.237339e+00	1.237359e+00	1.237366e+00	1.237376e+00	1.237380e+00	1.237382e+00	1.237385e+00	1.237385e+00	1.237383e+00	1.237379e+00	1.237380e+00	1.237384e+00	1.237385e+00	1.237389e+00	1.237382e+00	1.237384e+00	1.237385e+00	1.237392e+00	1.237387e+00	1.237390e+00	1.237395e+00	1.237427e+00	1.237465e+00	1.237489e+00	1.237507e+00	1.237520e+00	1.237532e+00	1.237531e+00	1.237532e+00	1.237529e+00	1.237533e+00	1.237534e+00	1.237539e+00	1.237549e+00	1.237563e+00	1.237576e+00	1.237570e+00	1.237575e+00	1.237579e+00	1.237590e+00	1.237586e+00	1.237630e+00	1.237702e+00	1.237758e+00	1.237786e+00	1.237819e+00	1.237837e+00	1.237861e+00	1.237871e+00	1.237882e+00	1.237912e+00	1.237916e+00	1.237928e+00	1.237952e+00	1.237972e+00	1.237978e+00	1.238004e+00	1.238027e+00	1.238062e+00	1.238108e+00	1.238121e+00	1.238136e+00	1.238191e+00	1.238236e+00	1.238354e+00	1.238423e+00	1.238494e+00	1.238649e+00	1.238786e+00	1.238901e+00	1.238900e+00	1.239018e+00	1.239133e+00	1.239256e+00	1.239404e+00	1.239492e+00	1.239566e+00	1.239656e+00	1.239797e+00	1.239890e+00	1.240007e+00	1.240089e+00	1.240023e+00	1.240069e+00	1.239978e+00	1.239994e+00	1.240047e+00	1.240295e+00	1.240538e+00	1.241513e+00	1.243755e+00	1.210760e+00	1.218545e+00	1.221403e+00	1.223049e+00	1.223971e+00	1.224368e+00	1.224555e+00	1.224830e+00	1.225051e+00	1.225533e+00	1.225755e+00	1.226096e+00	1.226476e+00	1.226575e+00	1.226926e+00	1.227072e+00	1.227120e+00	1.227393e+00	1.227674e+00	1.227858e+00	1.227983e+00	1.228085e+00	1.228416e+00	1.228808e+00	1.228964e+00	1.229269e+00	1.229599e+00	1.229828e+00	1.229942e+00	1.230275e+00	1.230559e+00	1.230740e+00	1.230877e+00	1.231015e+00	1.231129e+00	1.231244e+00	1.231335e+00	1.231455e+00	1.231633e+00	1.231748e+00	1.231898e+00	1.232126e+00	1.232219e+00	1.232449e+00	1.232504e+00	1.232664e+00	1.232896e+00	1.233026e+00	1.233276e+00	1.233347e+00	1.233782e+00	1.234096e+00	1.233997e+00	1.234082e+00	1.234535e+00	1.234859e+00	1.235151e+00	1.235349e+00	1.235423e+00	1.234216e+00	1.234119e+00	1.233125e+00	1.231955e+00	1.230579e+00	1.228117e+00	1.224390e+00	1.220241e+00	1.214673e+00	1.207582e+00	1.202543e+00	1.198402e+00	1.197791e+00	1.196559e+00	1.194716e+00	1.195242e+00	1.196766e+00	1.197013e+00	1.197031e+00	1.196830e+00	1.196419e+00	1.196000e+00	1.195648e+00	1.195160e+00	1.194803e+00	1.194570e+00	1.194297e+00	1.193883e+00	1.193521e+00	1.193078e+00	1.192569e+00	1.191928e+00	1.191545e+00	1.191189e+00	1.190682e+00	1.190091e+00	1.189602e+00	1.189009e+00	1.188425e+00	1.187819e+00	1.187105e+00	1.186025e+00	1.184704e+00	1.183843e+00	1.183520e+00	1.182774e+00	1.181582e+00	1.180479e+00	1.179694e+00	1.179191e+00	1.179137e+00	1.178725e+00	1.178148e+00	1.177488e+00	1.176661e+00	1.176139e+00	1.175439e+00	1.174488e+00	1.173672e+00	1.172733e+00	1.171281e+00	1.170027e+00	1.169015e+00	1.168474e+00	1.168086e+00	1.167341e+00	1.165600e+00	1.164473e+00	1.163352e+00	1.162810e+00	1.163193e+00	1.163467e+00	1.163092e+00	1.163225e+00	1.165595e+00	1.165242e+00	1.166041e+00	1.176418e+00	1.186891e+00	1.200118e+00	1.219741e+00	1.234902e+00	1.244612e+00	1.244804e+00	1.243280e+00	1.242991e+00	1.242825e+00	1.242915e+00	1.243121e+00	1.243264e+00	1.243226e+00	1.243450e+00	1.243347e+00	1.243431e+00	1.243756e+00	1.243748e+00	1.243532e+00	1.243827e+00	1.243733e+00	1.243819e+00	1.243905e+00	1.243783e+00	1.243803e+00	1.243882e+00	1.243808e+00	1.243999e+00	1.243887e+00	1.243885e+00	1.243837e+00	1.243786e+00	1.243795e+00	1.243718e+00	1.243758e+00	1.243637e+00	1.243662e+00	1.243632e+00	1.243556e+00	1.243630e+00	1.243475e+00	1.243349e+00	1.243315e+00	1.243302e+00	1.243307e+00	1.243259e+00	1.243251e+00	1.243082e+00	1.243045e+00	1.242937e+00	1.242869e+00	1.242810e+00	1.242737e+00	1.242728e+00	1.242622e+00	1.242537e+00	1.242417e+00	1.242467e+00	1.242464e+00	1.242366e+00	1.242395e+00	1.242307e+00	1.242199e+00	1.242093e+00	1.242027e+00	1.241888e+00	1.241861e+00	1.241682e+00	1.241606e+00	1.241524e+00	1.241354e+00	1.241323e+00	1.241195e+00	1.241098e+00	1.241054e+00	1.240963e+00	1.241025e+00	1.240936e+00	1.240803e+00	1.240622e+00	1.240546e+00	1.240381e+00	1.240210e+00	1.240104e+00	1.239816e+00	1.239762e+00	1.239633e+00	1.239653e+00	1.239624e+00	1.239434e+00	1.239326e+00	1.238943e+00	1.238398e+00	1.237967e+00	1.238031e+00	1.237863e+00	1.237447e+00	1.237023e+00	1.236727e+00	1.236625e+00	1.236255e+00	1.235620e+00	1.235414e+00	1.238356e+00	1.138279e+00	1.162366e+00	
VECTORS Momentum double