# vtk DataFile Version 3.0
vtk output
ASCII
DATASET UNSTRUCTURED_GRID
POINTS 859 double
8.250000e-01	2.490000e-02	0.0	6.750000e-01	-2.870000e-02	0.0	8.250000e-01	2.410000e-02	0.0	1.044520e+00	-1.740390e-01	0.0	1.037880e+00	-1.812280e-01	0.0	8.225136e-01	2.515232e-02	0.0	8.200260e-01	2.539252e-02	0.0	8.175378e-01	2.562525e-02	0.0	8.150494e-01	2.585730e-02	0.0	8.125613e-01	2.609165e-02	0.0	8.100736e-01	2.633135e-02	0.0	8.075861e-01	2.657236e-02	0.0	8.050983e-01	2.680983e-02	0.0	8.026098e-01	2.704006e-02	0.0	8.001202e-01	2.725873e-02	0.0	7.976299e-01	2.746874e-02	0.0	7.951395e-01	2.767761e-02	0.0	7.926495e-01	2.789148e-02	0.0	7.901604e-01	2.811515e-02	0.0	7.876726e-01	2.835330e-02	0.0	7.851860e-01	2.860319e-02	0.0	7.826998e-01	2.885676e-02	0.0	7.802132e-01	2.910705e-02	0.0	7.777258e-01	2.934887e-02	0.0	7.752372e-01	2.957879e-02	0.0	7.727477e-01	2.979747e-02	0.0	7.702575e-01	3.000941e-02	0.0	7.677670e-01	3.021649e-02	0.0	7.652761e-01	3.042027e-02	0.0	7.627851e-01	3.062199e-02	0.0	7.602941e-01	3.082274e-02	0.0	7.578030e-01	3.102339e-02	0.0	7.553119e-01	3.122471e-02	0.0	7.528212e-01	3.142976e-02	0.0	7.503311e-01	3.164143e-02	0.0	7.478411e-01	3.185610e-02	0.0	7.453511e-01	3.206905e-02	0.0	7.428606e-01	3.227672e-02	0.0	7.403695e-01	3.247765e-02	0.0	7.378779e-01	3.267186e-02	0.0	7.353859e-01	3.286004e-02	0.0	7.328934e-01	3.304304e-02	0.0	7.304007e-01	3.322165e-02	0.0	7.279077e-01	3.339668e-02	0.0	7.254145e-01	3.356925e-02	0.0	7.229212e-01	3.374009e-02	0.0	7.204278e-01	3.390963e-02	0.0	7.179343e-01	3.407814e-02	0.0	7.154408e-01	3.424580e-02	0.0	7.129472e-01	3.441275e-02	0.0	7.104536e-01	3.457908e-02	0.0	7.079600e-01	3.474488e-02	0.0	7.054663e-01	3.491018e-02	0.0	7.029726e-01	3.507505e-02	0.0	7.004789e-01	3.523952e-02	0.0	6.979851e-01	3.540361e-02	0.0	6.954913e-01	3.556734e-02	0.0	6.929975e-01	3.573075e-02	0.0	6.905037e-01	3.589382e-02	0.0	6.880099e-01	3.605658e-02	0.0	6.855160e-01	3.621902e-02	0.0	6.830221e-01	3.638113e-02	0.0	6.805282e-01	3.654289e-02	0.0	6.780343e-01	3.670427e-02	0.0	6.755403e-01	3.686520e-02	0.0	6.730464e-01	3.702597e-02	0.0	6.705524e-01	3.718730e-02	0.0	6.680585e-01	3.734890e-02	0.0	6.655645e-01	3.750979e-02	0.0	6.630704e-01	3.766751e-02	0.0	6.605758e-01	3.781852e-02	0.0	6.580807e-01	3.796176e-02	0.0	6.555854e-01	3.809963e-02	0.0	6.530899e-01	3.823465e-02	0.0	6.505943e-01	3.836829e-02	0.0	6.480987e-01	3.850119e-02	0.0	6.456031e-01	3.863339e-02	0.0	6.431074e-01	3.876490e-02	0.0	6.406117e-01	3.889573e-02	0.0	6.381159e-01	3.902586e-02	0.0	6.356201e-01	3.915530e-02	0.0	6.331243e-01	3.928401e-02	0.0	6.306284e-01	3.941197e-02	0.0	6.281325e-01	3.953916e-02	0.0	6.256365e-01	3.966553e-02	0.0	6.231406e-01	3.979105e-02	0.0	6.206445e-01	3.991565e-02	0.0	6.181484e-01	4.003928e-02	0.0	6.156523e-01	4.016186e-02	0.0	6.131561e-01	4.028332e-02	0.0	6.106598e-01	4.040356e-02	0.0	6.081635e-01	4.052246e-02	0.0	6.056671e-01	4.063988e-02	0.0	6.031707e-01	4.075566e-02	0.0	6.006741e-01	4.086959e-02	0.0	5.981775e-01	4.098194e-02	0.0	5.956808e-01	4.109386e-02	0.0	5.931842e-01	4.120528e-02	0.0	5.906875e-01	4.131604e-02	0.0	5.881908e-01	4.142599e-02	0.0	5.856940e-01	4.153499e-02	0.0	5.831972e-01	4.164289e-02	0.0	5.807003e-01	4.174954e-02	0.0	5.782034e-01	4.185478e-02	0.0	5.757064e-01	4.195847e-02	0.0	5.732093e-01	4.206046e-02	0.0	5.707122e-01	4.216060e-02	0.0	5.682149e-01	4.225874e-02	0.0	5.657176e-01	4.235473e-02	0.0	5.632202e-01	4.244843e-02	0.0	5.607228e-01	4.253967e-02	0.0	5.582252e-01	4.262832e-02	0.0	5.557275e-01	4.271422e-02	0.0	5.532297e-01	4.279722e-02	0.0	5.507319e-01	4.287717e-02	0.0	5.482339e-01	4.295335e-02	0.0	5.457357e-01	4.302426e-02	0.0	5.432375e-01	4.309033e-02	0.0	5.407391e-01	4.315208e-02	0.0	5.382406e-01	4.321004e-02	0.0	5.357421e-01	4.326471e-02	0.0	5.332434e-01	4.331664e-02	0.0	5.307448e-01	4.336634e-02	0.0	5.282461e-01	4.341433e-02	0.0	5.257474e-01	4.346115e-02	0.0	5.232487e-01	4.350731e-02	0.0	5.207499e-01	4.355333e-02	0.0	5.182512e-01	4.359975e-02	0.0	5.157525e-01	4.364709e-02	0.0	5.132539e-01	4.369586e-02	0.0	5.107552e-01	4.374660e-02	0.0	5.082566e-01	4.379982e-02	0.0	5.057581e-01	4.385606e-02	0.0	5.032597e-01	4.391583e-02	0.0	5.007614e-01	4.397966e-02	0.0	4.982631e-01	4.404807e-02	0.0	4.957651e-01	4.412106e-02	0.0	4.932671e-01	4.419809e-02	0.0	4.907692e-01	4.427859e-02	0.0	4.882715e-01	4.436201e-02	0.0	4.857738e-01	4.444779e-02	0.0	4.832762e-01	4.453535e-02	0.0	4.807786e-01	4.462415e-02	0.0	4.782811e-01	4.471362e-02	0.0	4.757835e-01	4.480321e-02	0.0	4.732860e-01	4.489235e-02	0.0	4.707884e-01	4.498048e-02	0.0	4.682907e-01	4.506704e-02	0.0	4.657930e-01	4.515148e-02	0.0	4.632952e-01	4.523322e-02	0.0	4.607973e-01	4.531172e-02	0.0	4.582993e-01	4.538641e-02	0.0	4.558011e-01	4.545672e-02	0.0	4.533028e-01	4.552210e-02	0.0	4.508044e-01	4.558198e-02	0.0	4.483058e-01	4.563631e-02	0.0	4.458072e-01	4.568647e-02	0.0	4.433085e-01	4.573283e-02	0.0	4.408097e-01	4.577564e-02	0.0	4.383108e-01	4.581518e-02	0.0	4.358120e-01	4.585169e-02	0.0	4.333130e-01	4.588545e-02	0.0	4.308141e-01	4.591671e-02	0.0	4.283151e-01	4.594574e-02	0.0	4.258161e-01	4.597280e-02	0.0	4.233171e-01	4.599815e-02	0.0	4.208180e-01	4.602205e-02	0.0	4.183190e-01	4.604476e-02	0.0	4.158199e-01	4.606656e-02	0.0	4.133209e-01	4.608769e-02	0.0	4.108218e-01	4.610842e-02	0.0	4.083228e-01	4.612902e-02	0.0	4.058237e-01	4.614975e-02	0.0	4.033246e-01	4.617086e-02	0.0	4.008256e-01	4.619262e-02	0.0	3.983265e-01	4.621500e-02	0.0	3.958275e-01	4.623715e-02	0.0	3.933284e-01	4.625892e-02	0.0	3.908294e-01	4.628024e-02	0.0	3.883303e-01	4.630103e-02	0.0	3.858312e-01	4.632123e-02	0.0	3.833322e-01	4.634075e-02	0.0	3.808331e-01	4.635952e-02	0.0	3.783340e-01	4.637747e-02	0.0	3.758349e-01	4.639452e-02	0.0	3.733358e-01	4.641059e-02	0.0	3.708367e-01	4.642562e-02	0.0	3.683376e-01	4.643952e-02	0.0	3.658385e-01	4.645222e-02	0.0	3.633394e-01	4.646365e-02	0.0	3.608402e-01	4.647373e-02	0.0	3.583411e-01	4.648238e-02	0.0	3.558420e-01	4.648954e-02	0.0	3.533428e-01	4.649512e-02	0.0	3.508437e-01	4.649906e-02	0.0	3.483445e-01	4.650138e-02	0.0	3.458454e-01	4.650243e-02	0.0	3.433462e-01	4.650223e-02	0.0	3.408471e-01	4.650078e-02	0.0	3.383479e-01	4.649807e-02	0.0	3.358488e-01	4.649413e-02	0.0	3.333496e-01	4.648893e-02	0.0	3.308505e-01	4.648248e-02	0.0	3.283514e-01	4.647478e-02	0.0	3.258522e-01	4.646584e-02	0.0	3.233531e-01	4.645564e-02	0.0	3.208540e-01	4.644420e-02	0.0	3.183549e-01	4.643150e-02	0.0	3.158558e-01	4.641756e-02	0.0	3.133567e-01	4.640237e-02	0.0	3.108576e-01	4.638593e-02	0.0	3.083585e-01	4.636824e-02	0.0	3.058594e-01	4.634930e-02	0.0	3.033603e-01	4.632911e-02	0.0	3.008613e-01	4.630768e-02	0.0	2.983622e-01	4.628515e-02	0.0	2.958632e-01	4.626200e-02	0.0	2.933641e-01	4.623817e-02	0.0	2.908651e-01	4.621353e-02	0.0	2.883661e-01	4.618799e-02	0.0	2.858671e-01	4.616143e-02	0.0	2.833681e-01	4.613373e-02	0.0	2.808691e-01	4.610478e-02	0.0	2.783702e-01	4.607447e-02	0.0	2.758712e-01	4.604270e-02	0.0	2.733723e-01	4.600933e-02	0.0	2.708734e-01	4.597427e-02	0.0	2.683745e-01	4.593741e-02	0.0	2.658757e-01	4.589862e-02	0.0	2.633768e-01	4.585780e-02	0.0	2.608781e-01	4.581483e-02	0.0	2.583793e-01	4.576960e-02	0.0	2.558806e-01	4.572201e-02	0.0	2.533820e-01	4.567193e-02	0.0	2.508834e-01	4.561926e-02	0.0	2.483848e-01	4.556415e-02	0.0	2.458863e-01	4.550741e-02	0.0	2.433879e-01	4.544906e-02	0.0	2.408894e-01	4.538900e-02	0.0	2.383911e-01	4.532718e-02	0.0	2.358927e-01	4.526351e-02	0.0	2.333944e-01	4.519792e-02	0.0	2.308962e-01	4.513034e-02	0.0	2.283980e-01	4.506069e-02	0.0	2.258999e-01	4.498890e-02	0.0	2.234018e-01	4.491489e-02	0.0	2.209039e-01	4.483859e-02	0.0	2.184060e-01	4.475992e-02	0.0	2.159081e-01	4.467881e-02	0.0	2.134104e-01	4.459518e-02	0.0	2.109127e-01	4.450897e-02	0.0	2.084151e-01	4.442009e-02	0.0	2.059177e-01	4.432847e-02	0.0	2.034203e-01	4.423404e-02	0.0	2.009231e-01	4.413672e-02	0.0	1.984259e-01	4.403650e-02	0.0	1.959289e-01	4.393359e-02	0.0	1.934320e-01	4.382811e-02	0.0	1.909352e-01	4.372013e-02	0.0	1.884384e-01	4.360972e-02	0.0	1.859418e-01	4.349693e-02	0.0	1.834453e-01	4.338178e-02	0.0	1.809490e-01	4.326430e-02	0.0	1.784527e-01	4.314449e-02	0.0	1.759565e-01	4.302235e-02	0.0	1.734605e-01	4.289786e-02	0.0	1.709646e-01	4.277100e-02	0.0	1.684687e-01	4.264170e-02	0.0	1.659731e-01	4.250992e-02	0.0	1.634775e-01	4.237557e-02	0.0	1.609822e-01	4.223856e-02	0.0	1.584869e-01	4.209876e-02	0.0	1.559918e-01	4.195602e-02	0.0	1.534970e-01	4.181016e-02	0.0	1.510023e-01	4.166095e-02	0.0	1.485078e-01	4.150830e-02	0.0	1.460135e-01	4.135261e-02	0.0	1.435194e-01	4.119369e-02	0.0	1.410255e-01	4.103126e-02	0.0	1.385319e-01	4.086503e-02	0.0	1.360386e-01	4.069471e-02	0.0	1.335456e-01	4.052000e-02	0.0	1.310529e-01	4.034059e-02	0.0	1.285605e-01	4.015619e-02	0.0	1.260686e-01	3.996653e-02	0.0	1.235771e-01	3.977132e-02	0.0	1.210860e-01	3.957032e-02	0.0	1.185954e-01	3.936331e-02	0.0	1.161054e-01	3.915010e-02	0.0	1.136159e-01	3.893054e-02	0.0	1.111270e-01	3.870451e-02	0.0	1.086387e-01	3.847177e-02	0.0	1.061512e-01	3.823146e-02	0.0	1.036643e-01	3.798369e-02	0.0	1.011782e-01	3.772865e-02	0.0	9.869287e-02	3.746648e-02	0.0	9.620826e-02	3.719729e-02	0.0	9.372442e-02	3.692112e-02	0.0	9.124136e-02	3.663798e-02	0.0	8.875912e-02	3.634781e-02	0.0	8.627772e-02	3.605050e-02	0.0	8.379721e-02	3.574585e-02	0.0	8.131764e-02	3.543360e-02	0.0	7.883910e-02	3.511337e-02	0.0	7.636167e-02	3.478463e-02	0.0	7.388555e-02	3.444616e-02	0.0	7.141140e-02	3.409353e-02	0.0	6.893949e-02	3.372563e-02	0.0	6.646993e-02	3.334223e-02	0.0	6.400283e-02	3.294327e-02	0.0	6.153828e-02	3.252889e-02	0.0	5.907630e-02	3.209950e-02	0.0	5.661685e-02	3.165585e-02	0.0	5.415979e-02	3.119911e-02	0.0	5.170489e-02	3.073094e-02	0.0	4.925167e-02	3.025400e-02	0.0	4.679885e-02	2.977507e-02	0.0	4.434779e-02	2.928717e-02	0.0	4.190165e-02	2.877527e-02	0.0	3.946460e-02	2.822178e-02	0.0	3.704086e-02	2.761278e-02	0.0	3.463302e-02	2.694363e-02	0.0	3.224133e-02	2.621885e-02	0.0	2.986710e-02	2.543878e-02	0.0	2.750733e-02	2.461591e-02	0.0	2.515848e-02	2.376234e-02	0.0	2.281867e-02	2.288429e-02	0.0	2.048696e-02	2.198492e-02	0.0	1.816319e-02	2.106526e-02	0.0	1.584808e-02	2.012399e-02	0.0	1.354433e
[...]
POINT_DATA 859

SCALARS Density double 1
LOOKUP_TABLE default
1.134307e+00	1.215794e+00	1.138669e+00	1.187744e+00	1.189360e+00	1.188632e+00	1.187741e+00	1.188512e+00	1.189414e+00	1.189960e+00	1.190232e+00	1.190653e+00	1.191312e+00	1.192173e+00	1.193404e+00	1.194421e+00	1.195115e+00	1.195629e+00	1.195638e+00	1.195292e+00	1.194847e+00	1.194635e+00	1.194721e+00	1.195121e+00	1.195684e+00	1.196307e+00	1.196814e+00	1.197336e+00	1.197778e+00	1.198122e+00	1.198521e+00	1.198833e+00	1.199080e+00	1.199039e+00	1.198833e+00	1.198702e+00	1.198764e+00	1.198992e+00	1.199244e+00	1.199572e+00	1.199852e+00	1.200185e+00	1.200527e+00	1.200796e+00	1.201048e+00	1.201303e+00	1.201552e+00	1.201786e+00	1.202000e+00	1.202167e+00	1.202304e+00	1.202482e+00	1.202610e+00	1.202752e+00	1.202900e+00	1.203098e+00	1.203207e+00	1.203322e+00	1.203456e+00	1.203543e+00	1.203643e+00	1.203725e+00	1.203814e+00	1.203933e+00	1.204016e+00	1.204030e+00	1.204008e+00	1.203923e+00	1.203828e+00	1.203856e+00	1.204212e+00	1.204510e+00	1.204736e+00	1.204939e+00	1.205092e+00	1.205214e+00	1.205305e+00	1.205413e+00	1.205521e+00	1.205629e+00	1.205709e+00	1.205798e+00	1.205882e+00	1.205957e+00	1.206043e+00	1.206125e+00	1.206202e+00	1.206269e+00	1.206335e+00	1.206402e+00	1.206490e+00	1.206559e+00	1.206641e+00	1.206750e+00	1.206877e+00	1.206971e+00	1.207014e+00	1.207067e+00	1.207130e+00	1.207164e+00	1.207205e+00	1.207239e+00	1.207278e+00	1.207345e+00	1.207407e+00	1.207443e+00	1.207500e+00	1.207556e+00	1.207590e+00	1.207630e+00	1.207726e+00	1.207764e+00	1.207820e+00	1.207852e+00	1.207938e+00	1.208054e+00	1.208226e+00	1.208439e+00	1.208625e+00	1.208807e+00	1.208992e+00	1.209157e+00	1.209327e+00	1.209523e+00	1.209710e+00	1.209882e+00	1.210052e+00	1.210220e+00	1.210381e+00	1.210513e+00	1.210622e+00	1.210722e+00	1.210811e+00	1.210841e+00	1.210850e+00	1.210813e+00	1.210748e+00	1.210686e+00	1.210634e+00	1.210517e+00	1.210433e+00	1.210365e+00	1.210264e+00	1.210196e+00	1.210117e+00	1.210023e+00	1.209945e+00	1.209882e+00	1.209817e+00	1.209795e+00	1.209791e+00	1.209796e+00	1.209819e+00	1.209906e+00	1.210022e+00	1.210125e+00	1.210208e+00	1.210297e+00	1.210387e+00	1.210498e+00	1.210600e+00	1.210712e+00	1.210832e+00	1.210949e+00	1.211046e+00	1.211151e+00	1.211233e+00	1.211323e+00	1.211419e+00	1.211495e+00	1.211572e+00	1.211657e+00	1.211700e+00	1.211736e+00	1.211726e+00	1.211726e+00	1.211756e+00	1.211780e+00	1.211819e+00	1.211847e+00	1.211881e+00	1.211907e+00	1.211925e+00	1.211947e+00	1.211988e+00	1.212022e+00	1.212039e+00	1.212055e+00	1.212077e+00	1.212092e+00	1.212122e+00	1.212146e+00	1.212213e+00	1.212267e+00	1.212287e+00	1.212337e+00	1.212390e+00	1.212423e+00	1.212451e+00	1.212460e+00	1.212504e+00	1.212535e+00	1.212570e+00	1.212604e+00	1.212638e+00	1.212664e+00	1.212707e+00	1.212729e+00	1.212771e+00	1.212803e+00	1.212848e+00	1.212870e+00	1.212909e+00	1.212932e+00	1.212963e+00	1.212996e+00	1.213016e+00	1.213051e+00	1.213059e+00	1.213077e+00	1.213086e+00	1.213107e+00	1.213084e+00	1.213076e+00	1.213092e+00	1.213108e+00	1.213142e+00	1.213155e+00	1.213178e+00	1.213201e+00	1.213232e+00	1.213227e+00	1.213238e+00	1.213288e+00	1.213345e+00	1.213409e+00	1.213419e+00	1.213437e+00	1.213438e+00	1.213491e+00	1.213542e+00	1.213556e+00	1.213551e+00	1.213564e+00	1.213574e+00	1.213587e+00	1.213605e+00	1.213621e+00	1.213633e+00	1.213669e+00	1.213677e+00	1.213702e+00	1.213747e+00	1.213770e+00	1.213811e+00	1.213892e+00	1.213937e+00	1.213983e+00	1.214032e+00	1.214022e+00	1.214056e+00	1.214088e+00	1.214087e+00	1.214083e+00	1.214126e+00	1.214128e+00	1.214153e+00	1.214176e+00	1.214166e+00	1.214195e+00	1.214195e+00	1.214130e+00	1.214152e+00	1.214149e+00	1.214176e+00	1.214165e+00	1.214167e+00	1.214160e+00	1.214180e+00	1.214154e+00	1.214150e+00	1.214130e+00	1.214154e+00	1.214162e+00	1.214198e+00	1.214192e+00	1.214234e+00	1.214222e+00	1.214239e+00	1.214205e+00	1.214237e+00	1.214259e+00	1.214313e+00	1.214353e+00	1.214494e+00	1.214560e+00	1.214507e+00	1.214595e+00	1.214623e+00	1.214685e+00	1.214607e+00	1.214614e+00	1.214603e+00	1.214622e+00	1.214561e+00	1.214463e+00	1.214509e+00	1.214714e+00	1.214798e+00	1.215014e+00	1.215166e+00	1.215296e+00	1.215434e+00	1.215438e+00	1.215554e+00	1.215234e+00	1.214690e+00	1.214167e+00	1.214013e+00	1.214383e+00	1.215228e+00	1.216118e+00	1.217406e+00	1.218623e+00	1.220098e+00	1.221352e+00	1.221772e+00	1.221704e+00	1.221544e+00	1.220489e+00	1.218701e+00	1.219312e+00	1.229204e+00	1.236225e+00	1.238612e+00	1.245827e+00	1.249113e+00	1.253107e+00	1.253254e+00	1.253738e+00	1.256369e+00	1.256767e+00	1.253014e+00	1.247336e+00	1.240767e+00	1.235421e+00	1.225970e+00	1.218703e+00	1.214932e+00	1.212867e+00	1.212075e+00	1.210828e+00	1.208725e+00	1.208622e+00	1.209330e+00	1.209626e+00	1.209600e+00	1.209433e+00	1.209830e+00	1.210037e+00	1.210148e+00	1.210232e+00	1.210192e+00	1.210321e+00	1.210598e+00	1.210827e+00	1.211415e+00	1.211846e+00	1.212219e+00	1.212325e+00	1.212508e+00	1.212531e+00	1.212469e+00	1.212718e+00	1.212865e+00	1.212929e+00	1.213061e+00	1.213280e+00	1.213516e+00	1.213756e+00	1.213943e+00	1.214125e+00	1.214206e+00	1.214374e+00	1.214461e+00	1.214668e+00	1.214825e+00	1.215041e+00	1.215206e+00	1.215270e+00	1.215308e+00	1.215476e+00	1.215590e+00	1.215700e+00	1.215840e+00	1.215963e+00	1.216109e+00	1.216311e+00	1.216417e+00	1.216593e+00	1.216726e+00	1.216896e+00	1.217023e+00	1.217191e+00	1.217331e+00	1.217443e+00	1.217572e+00	1.217661e+00	1.217789e+00	1.217891e+00	1.218016e+00	1.218125e+00	1.218222e+00	1.218342e+00	1.218432e+00	1.218553e+00	1.218633e+00	1.218746e+00	1.218818e+00	1.218915e+00	1.218983e+00	1.219074e+00	1.219149e+00	1.219259e+00	1.219360e+00	1.219415e+00	1.219491e+00	1.219562e+00	1.219651e+00	1.219758e+00	1.219833e+00	1.219927e+00	1.220005e+00	1.220114e+00	1.220196e+00	1.220266e+00	1.220379e+00	1.220469e+00	1.220536e+00	1.220624e+00	1.220719e+00	1.220781e+00	1.220862e+00	1.220939e+00	1.221035e+00	1.221112e+00	1.221184e+00	1.221286e+00	1.221363e+00	1.221404e+00	1.221468e+00	1.221570e+00	1.221651e+00	1.221736e+00	1.221811e+00	1.221921e+00	1.222011e+00	1.222096e+00	1.222166e+00	1.222255e+00	1.222337e+00	1.222432e+00	1.222505e+00	1.222584e+00	1.222652e+00	1.222747e+00	1.222820e+00	1.222883e+00	1.222953e+00	1.223010e+00	1.223089e+00	1.223164e+00	1.223237e+00	1.223297e+00	1.223352e+00	1.223413e+00	1.223485e+00	1.223563e+00	1.223626e+00	1.223694e+00	1.223748e+00	1.223801e+00	1.223861e+00	1.223941e+00	1.223999e+00	1.224056e+00	1.224103e+00	1.224174e+00	1.224234e+00	1.224307e+00	1.224385e+00	1.224465e+00	1.224533e+00	1.224597e+00	1.224660e+00	1.224713e+00	1.224798e+00	1.224859e+00	1.224933e+00	1.224998e+00	1.225060e+00	1.225121e+00	1.225199e+00	1.225263e+00	1.225330e+00	1.225394e+00	1.225476e+00	1.225527e+00	1.225598e+00	1.225659e+00	1.225727e+00	1.225808e+00	1.225864e+00	1.225916e+00	1.225978e+00	1.226019e+00	1.226071e+00	1.226128e+00	1.226214e+00	1.226276e+00	1.226344e+00	1.226390e+00	1.226454e+00	1.226491e+00	1.226532e+00	1.226596e+00	1.226689e+00	1.226745e+00	1.226835e+00	1.226892e+00	1.226947e+00	1.227003e+00	1.227063e+00	1.227104e+00	1.227160e+00	1.227212e+00	1.227270e+00	1.227348e+00	1.227412e+00	1.227453e+00	1.227504e+00	1.227568e+00	1.227624e+00	1.227658e+00	1.227707e+00	1.227779e+00	1.227866e+00	1.227953e+00	1.228023e+00	1.228088e+00	1.228151e+00	1.228205e+00	1.228250e+00	1.228296e+00	1.228331e+00	1.228384e+00	1.228442e+00	1.228488e+00	1.228544e+00	1.228630e+00	1.228694e+00	1.228739e+00	1.228783e+00	1.228835e+00	1.228889e+00	1.228926e+00	1.229021e+00	1.229144e+00	1.229240e+00	1.229311e+00	1.229393e+00	1.229455e+00	1.229527e+00	1.229575e+00	1.229622e+00	1.229707e+00	1.229749e+00	1.229808e+00	1.229874e+00	1.229937e+00	1.229978e+00	1.230049e+00	1.230116e+00	1.230197e+00	1.230293e+00	1.230332e+00	1.230387e+00	1.230483e+00	1.230564e+00	1.230725e+00	1.230827e+00	1.230933e+00	1.231136e+00	1.231319e+00	1.231470e+00	1.231491e+00	1.231648e+00	1.231790e+00	1.231949e+00	1.232142e+00	1.232255e+00	1.232354e+00	1.232469e+00	1.232650e+00	1.232770e+00	1.232918e+00	1.233033e+00	1.232996e+00	1.233090e+00	1.233024e+00	1.233069e+00	1.233144e+00	1.233404e+00	1.233641e+00	1.234583e+00	1.236669e+00	1.205844e+00	1.213361e+00	1.215974e+00	1.217477e+00	1.218341e+00	1.218696e+00	1.218853e+00	1.219093e+00	1.219295e+00	1.219741e+00	1.219946e+00	1.220260e+00	1.220614e+00	1.220704e+00	1.221027e+00	1.221164e+00	1.221204e+00	1.221458e+00	1.221720e+00	1.221890e+00	1.222003e+00	1.222097e+00	1.222401e+00	1.222762e+00	1.222904e+00	1.223183e+00	1.223483e+00	1.223684e+00	1.223786e+00	1.224087e+00	1.224341e+00	1.224498e+00	1.224616e+00	1.224740e+00	1.224846e+00	1.224970e+00	1.225054e+00	1.225170e+00	1.225344e+00	1.225455e+00	1.225594e+00	1.225799e+00	1.225887e+00	1.226114e+00	1.226166e+00	1.226328e+00	1.226564e+00	1.226699e+00	1.226962e+00	1.227035e+00	1.227493e+00	1.227811e+00	1.227681e+00	1.227759e+00	1.228214e+00	1.228528e+00	1.228812e+00	1.228980e+00	1.229006e+00	1.227605e+00	1.227436e+00	1.226182e+00	1.224742e+00	1.223016e+00	1.220035e+00	1.215576e+00	1.210639e+00	1.204057e+00	1.195766e+00	1.189256e+00	1.211843e+00	1.210510e+00	1.208359e+00	1.204766e+00	1.205051e+00	1.207298e+00	1.207671e+00	1.207733e+00	1.207327e+00	1.206562e+00	1.205740e+00	1.204994e+00	1.204028e+00	1.203301e+00	1.202763e+00	1.202170e+00	1.201392e+00	1.200718e+00	1.199878e+00	1.198961e+00	1.197837e+00	1.197073e+00	1.196282e+00	1.195341e+00	1.194230e+00	1.193190e+00	1.192104e+00	1.190978e+00	1.189805e+00	1.188403e+00	1.186466e+00	1.184187e+00	1.182564e+00	1.181699e+00	1.180304e+00	1.178244e+00	1.176275e+00	1.174830e+00	1.173941e+00	1.173655e+00	1.173048e+00	1.172283e+00	1.171168e+00	1.169805e+00	1.168899e+00	1.167882e+00	1.166392e+00	1.165206e+00	1.163876e+00	1.161557e+00	1.159384e+00	1.157932e+00	1.157032e+00	1.156581e+00	1.155577e+00	1.152666e+00	1.151289e+00	1.149832e+00	1.148933e+00	1.149155e+00	1.150240e+00	1.149854e+00	1.150399e+00	1.153509e+00	1.151359e+00	1.150871e+00	1.161580e+00	1.171901e+00	1.186561e+00	1.208545e+00	1.225489e+00	1.237403e+00	1.238537e+00	1.236834e+00	1.236587e+00	1.236533e+00	1.236157e+00	1.236412e+00	1.236463e+00	1.236486e+00	1.236807e+00	1.236762e+00	1.236863e+00	1.237189e+00	1.237201e+00	1.237007e+00	1.237311e+00	1.237234e+00	1.237332e+00	1.237442e+00	1.237349e+00	1.237400e+00	1.237494e+00	1.237449e+00	1.237662e+00	1.237572e+00	1.237595e+00	1.237572e+00	1.237549e+00	1.237577e+00	1.237524e+00	1.237584e+00	1.237490e+00	1.237536e+00	1.237528e+00	1.237477e+00	1.237567e+00	1.237440e+00	1.237337e+00	1.237322e+00	1.237329e+00	1.237353e+00	1.237326e+00	1.237338e+00	1.237198e+00	1.237184e+00	1.237101e+00	1.237059e+00	1.237026e+00	1.236979e+00	1.236990e+00	1.236908e+00	1.236844e+00	1.236749e+00	1.236817e+00	1.236833e+00	1.236759e+00	1.236809e+00	1.236747e+00	1.236671e+00	1.236592e+00	1.236555e+00	1.236447e+00	1.236447e+00	1.236304e+00	1.236258e+00	1.236208e+00	1.236074e+00	1.236071e+00	1.235979e+00	1.235915e+00	1.235899e+00	1.235835e+00	1.235913e+00	1.235853e+00	1.235766e+00	1.235635e+00	1.235599e+00	1.235483e+00	1.235366e+00	1.235312e+00	1.235093e+00	1.235087e+00	1.234999e+00	1.235043e+00	1.235057e+00	1.234935e+00	1.234894e+00	1.234619e+00	1.234222e+00	1.233918e+00	1.234038e+00	1.233954e+00	1.233692e+00	1.233429e+00	1.233258e+00	1.233291e+00	1.233169e+00	1.232825e+00	1.232937e+00	1.236137e+00	1.154923e+00	1.168938e+00	
VECTORS Momentum double