# vtk DataFile Version 3.0
vtk output
ASCII
DATASET UNSTRUCTURED_GRID
POINTS 1814 double
8.250000e-01	2.410000e-02	0.0	6.750000e-01	-2.600000e-02	0.0	1.000000e+01	0.000000e+00	0.0	0.000000e+00	1.000000e+01	0.0	-1.000000e+01	0.000000e+00	0.0	0.000000e+00	-1.000000e+01	0.0	8.200833e-01	2.456923e-02	0.0	8.151549e-01	2.490001e-02	0.0	8.102190e-01	2.508537e-02	0.0	8.052802e-01	2.517163e-02	0.0	8.003408e-01	2.521650e-02	0.0	7.954013e-01	2.523132e-02	0.0	7.904618e-01	2.520483e-02	0.0	7.855224e-01	2.516420e-02	0.0	7.805833e-01	2.509529e-02	0.0	7.756466e-01	2.493036e-02	0.0	7.707124e-01	2.469981e-02	0.0	7.657796e-01	2.444058e-02	0.0	7.608526e-01	2.409097e-02	0.0	7.559367e-01	2.360940e-02	0.0	7.510329e-01	2.301599e-02	0.0	7.461350e-01	2.237616e-02	0.0	7.412476e-01	2.166038e-02	0.0	7.363776e-01	2.083490e-02	0.0	7.315364e-01	1.985529e-02	0.0	7.267391e-01	1.867961e-02	0.0	7.219830e-01	1.734668e-02	0.0	7.172706e-01	1.586641e-02	0.0	7.126090e-01	1.423348e-02	0.0	7.080114e-01	1.242844e-02	0.0	7.034993e-01	1.041951e-02	0.0	6.990960e-01	8.182443e-03	0.0	6.948375e-01	5.681373e-03	0.0	6.907683e-01	2.883278e-03	0.0	6.869638e-01	-2.636363e-04	0.0	6.834740e-01	-3.757330e-03	0.0	6.802886e-01	-7.530685e-03	0.0	6.775300e-01	-1.162111e-02	0.0	6.758043e-01	-1.623651e-02	0.0	6.748154e-01	-2.107458e-02	0.0	6.702417e-01	-2.749451e-02	0.0	6.655309e-01	-2.913408e-02	0.0	6.607818e-01	-3.065779e-02	0.0	6.559553e-01	-3.191393e-02	0.0	6.510686e-01	-3.291155e-02	0.0	6.461471e-01	-3.372292e-02	0.0	6.412103e-01	-3.443514e-02	0.0	6.362646e-01	-3.508362e-02	0.0	6.313132e-01	-3.568635e-02	0.0	6.263576e-01	-3.625413e-02	0.0	6.213989e-01	-3.679405e-02	0.0	6.164378e-01	-3.731109e-02	0.0	6.114747e-01	-3.780888e-02	0.0	6.065099e-01	-3.829024e-02	0.0	6.015438e-01	-3.875739e-02	0.0	5.965762e-01	-3.920718e-02	0.0	5.916058e-01	-3.962671e-02	0.0	5.866332e-01	-4.001780e-02	0.0	5.816586e-01	-4.038333e-02	0.0	5.766824e-01	-4.072621e-02	0.0	5.717049e-01	-4.104935e-02	0.0	5.667263e-01	-4.135568e-02	0.0	5.617468e-01	-4.164815e-02	0.0	5.567668e-01	-4.192969e-02	0.0	5.517863e-01	-4.220326e-02	0.0	5.468053e-01	-4.246851e-02	0.0	5.418235e-01	-4.271610e-02	0.0	5.368408e-01	-4.294680e-02	0.0	5.318574e-01	-4.316237e-02	0.0	5.268735e-01	-4.336458e-02	0.0	5.218892e-01	-4.355521e-02	0.0	5.169044e-01	-4.373603e-02	0.0	5.119194e-01	-4.390883e-02	0.0	5.069342e-01	-4.407538e-02	0.0	5.019488e-01	-4.423747e-02	0.0	4.969633e-01	-4.439518e-02	0.0	4.919775e-01	-4.454318e-02	0.0	4.869914e-01	-4.468169e-02	0.0	4.820051e-01	-4.481159e-02	0.0	4.770186e-01	-4.493378e-02	0.0	4.720319e-01	-4.504914e-02	0.0	4.670451e-01	-4.515858e-02	0.0	4.620582e-01	-4.526297e-02	0.0	4.570712e-01	-4.536322e-02	0.0	4.520841e-01	-4.546022e-02	0.0	4.470970e-01	-4.555416e-02	0.0	4.421098e-01	-4.564264e-02	0.0	4.371224e-01	-4.572563e-02	0.0	4.321350e-01	-4.580342e-02	0.0	4.271476e-01	-4.587630e-02	0.0	4.221600e-01	-4.594458e-02	0.0	4.171724e-01	-4.600856e-02	0.0	4.121848e-01	-4.606852e-02	0.0	4.071971e-01	-4.612477e-02	0.0	4.022093e-01	-4.617761e-02	0.0	3.972216e-01	-4.622731e-02	0.0	3.922338e-01	-4.627386e-02	0.0	3.872460e-01	-4.631695e-02	0.0	3.822581e-01	-4.635630e-02	0.0	3.772702e-01	-4.639160e-02	0.0	3.722823e-01	-4.642256e-02	0.0	3.672944e-01	-4.644888e-02	0.0	3.623064e-01	-4.647027e-02	0.0	3.573184e-01	-4.648641e-02	0.0	3.523304e-01	-4.649702e-02	0.0	3.473424e-01	-4.650195e-02	0.0	3.423544e-01	-4.650180e-02	0.0	3.373664e-01	-4.649667e-02	0.0	3.323784e-01	-4.648657e-02	0.0	3.273904e-01	-4.647149e-02	0.0	3.224024e-01	-4.645144e-02	0.0	3.174145e-01	-4.642640e-02	0.0	3.124266e-01	-4.639640e-02	0.0	3.074387e-01	-4.636141e-02	0.0	3.024508e-01	-4.632146e-02	0.0	2.974630e-01	-4.627689e-02	0.0	2.924752e-01	-4.622950e-02	0.0	2.874875e-01	-4.617877e-02	0.0	2.824998e-01	-4.612382e-02	0.0	2.775121e-01	-4.606373e-02	0.0	2.725246e-01	-4.599764e-02	0.0	2.675371e-01	-4.592463e-02	0.0	2.625497e-01	-4.584382e-02	0.0	2.575625e-01	-4.575431e-02	0.0	2.525755e-01	-4.565522e-02	0.0	2.475887e-01	-4.554624e-02	0.0	2.426020e-01	-4.543035e-02	0.0	2.376155e-01	-4.530762e-02	0.0	2.326292e-01	-4.517744e-02	0.0	2.276431e-01	-4.503923e-02	0.0	2.226573e-01	-4.489239e-02	0.0	2.176717e-01	-4.473633e-02	0.0	2.126864e-01	-4.457046e-02	0.0	2.077015e-01	-4.439419e-02	0.0	2.027171e-01	-4.420693e-02	0.0	1.977330e-01	-4.400799e-02	0.0	1.927495e-01	-4.379700e-02	0.0	1.877664e-01	-4.357532e-02	0.0	1.827837e-01	-4.334400e-02	0.0	1.778015e-01	-4.310377e-02	0.0	1.728197e-01	-4.285500e-02	0.0	1.678383e-01	-4.259781e-02	0.0	1.628574e-01	-4.233199e-02	0.0	1.578770e-01	-4.205697e-02	0.0	1.528972e-01	-4.177159e-02	0.0	1.479182e-01	-4.147209e-02	0.0	1.429409e-01	-4.114406e-02	0.0	1.379656e-01	-4.078855e-02	0.0	1.329920e-01	-4.041019e-02	0.0	1.280197e-01	-4.001415e-02	0.0	1.230483e-01	-3.960776e-02	0.0	1.180765e-01	-3.920574e-02	0.0	1.131360e-01	-3.893347e-02	0.0	1.081762e-01	-3.840417e-02	0.0	1.032165e-01	-3.787343e-02	0.0	9.825732e-02	-3.733784e-02	0.0	9.329916e-02	-3.679300e-02	0.0	8.834247e-02	-3.623492e-02	0.0	8.338796e-02	-3.565781e-02	0.0	7.843699e-02	-3.505112e-02	0.0	7.349287e-02	-3.439122e-02	0.0	6.855769e-02	-3.366740e-02	0.0	6.363195e-02	-3.288192e-02	0.0	5.871631e-02	-3.203546e-02	0.0	5.381061e-02	-3.113320e-02	0.0	4.891347e-02	-3.018549e-02	0.0	4.403198e-02	-2.916060e-02	0.0	3.917352e-02	-2.803164e-02	0.0	3.434085e-02	-2.679688e-02	0.0	2.953784e-02	-2.545181e-02	0.0	2.478800e-02	-2.392988e-02	0.0	2.009644e-02	-2.223661e-02	0.0	1.551032e-02	-2.027948e-02	0.0	1.112795e-02	-1.790062e-02	0.0	7.047202e-03	-1.503797e-02	0.0	3.675123e-03	-1.139161e-02	0.0	1.300145e-03	-7.015855e-03	0.0	1.326638e-04	-2.176957e-03	0.0	2.217383e-04	2.793605e-03	0.0	1.540030e-03	7.590842e-03	0.0	4.036241e-03	1.189934e-02	0.0	7.536443e-03	1.542380e-02	0.0	1.166220e-02	1.822125e-02	0.0	1.607252e-02	2.054810e-02	0.0	2.067942e-02	2.245653e-02	0.0	2.537814e-02	2.412978e-02	0.0	3.013517e-02	2.562907e-02	0.0	3.494313e-02	2.695651e-02	0.0	3.977903e-02	2.817856e-02	0.0	4.464058e-02	2.929413e-02	0.0	4.952465e-02	3.030673e-02	0.0	5.442291e-02	3.124862e-02	0.0	5.932980e-02	3.214441e-02	0.0	6.424671e-02	3.298342e-02	0.0	6.917368e-02	3.376116e-02	0.0	7.410996e-02	3.447739e-02	0.0	7.905357e-02	3.514141e-02	0.0	8.400164e-02	3.577125e-02	0.0	8.895348e-02	3.637079e-02	0.0	9.390869e-02	3.694185e-02	0.0	9.886703e-02	3.748509e-02	0.0	1.038284e-01	3.800026e-02	0.0	1.087926e-01	3.848638e-02	0.0	1.137596e-01	3.894339e-02	0.0	1.187290e-01	3.937456e-02	0.0	1.237004e-01	3.978112e-02	0.0	1.286736e-01	4.016467e-02	0.0	1.336484e-01	4.052730e-02	0.0	1.386246e-01	4.087128e-02	0.0	1.436018e-01	4.119899e-02	0.0	1.485799e-01	4.151275e-02	0.0	1.535588e-01	4.181381e-02	0.0	1.585385e-01	4.210168e-02	0.0	1.635189e-01	4.237782e-02	0.0	1.684998e-01	4.264333e-02	0.0	1.734813e-01	4.289891e-02	0.0	1.784632e-01	4.314500e-02	0.0	1.834456e-01	4.338179e-02	0.0	1.884284e-01	4.360928e-02	0.0	1.934117e-01	4.382724e-02	0.0	1.983953e-01	4.403525e-02	0.0	2.033794e-01	4.423247e-02	0.0	2.083640e-01	4.441824e-02	0.0	2.133489e-01	4.459309e-02	0.0	2.183342e-01	4.475763e-02	0.0	2.233198e-01	4.491242e-02	0.0	2.283057e-01	4.505808e-02	0.0	2.332918e-01	4.519519e-02	0.0	2.382782e-01	4.532434e-02	0.0	2.432647e-01	4.544614e-02	0.0	2.482514e-01	4.556116e-02	0.0	2.532382e-01	4.566898e-02	0.0	2.582253e-01	4.576674e-02	0.0	2.632125e-01	4.585504e-02	0.0	2.681999e-01	4.593476e-02	0.0	2.731874e-01	4.600680e-02	0.0	2.781750e-01	4.607205e-02	0.0	2.831626e-01	4.613140e-02	0.0	2.881503e-01	4.618574e-02	0.0	2.931381e-01	4.623597e-02	0.0	2.981259e-01	4.628298e-02	0.0	3.031137e-01	4.632705e-02	0.0	3.081015e-01	4.636635e-02	0.0	3.130894e-01	4.640067e-02	0.0	3.180774e-01	4.643002e-02	0.0	3.230653e-01	4.645439e-02	0.0	3.280533e-01	4.647378e-02	0.0	3.330413e-01	4.648820e-02	0.0	3.380293e-01	4.649764e-02	0.0	3.430173e-01	4.650211e-02	0.0	3.480053e-01	4.650160e-02	0.0	3.529933e-01	4.649577e-02	0.0	3.579813e-01	4.648351e-02	0.0	3.629693e-01	4.646523e-02	0.0	3.679572e-01	4.644153e-02	0.0	3.729452e-01	4.641301e-02	0.0	3.779331e-01	4.638027e-02	0.0	3.829209e-01	4.634389e-02	0.0	3.879088e-01	4.630448e-02	0.0	3.928966e-01	4.626263e-02	0.0	3.978844e-01	4.621894e-02	0.0	4.028723e-01	4.617412e-02	0.0	4.078601e-01	4.612868e-02	0.0	4.128478e-01	4.608182e-02	0.0	4.178356e-01	4.603267e-02	0.0	4.228234e-01	4.598032e-02	0.0	4.278110e-01	4.592389e-02	0.0	4.327987e-01	4.586247e-02	0.0	4.377862e-01	4.579518e-02	0.0	4.427737e-01	4.572113e-02	0.0	4.477610e-01	4.563941e-02	0.0	4.527482e-01	4.554920e-02	0.0	4.577353e-01	4.545055e-02	0.0	4.627221e-01	4.534434e-02	0.0	4.677089e-01	4.523146e-02	0.0	4.726955e-01	4.511279e-02	0.0	4.776819e-01	4.498925e-02	0.0	4.826683e-01	4.486171e-02	0.0	4.876546e-01	4.473107e-02	0.0	4.926409e-01	4.459822e-02	0.0	4.976271e-01	4.446405e-02	0.0	5.026133e-01	4.432929e-02	0.0	5.075994e-01	4.419331e-02	0.0	5.125855e-01	4.405543e-02	0.0	5.175716e-01	4.391505e-02	0.0	5.225575e-01	4.377159e-02	0.0	5.275433e-01	4.362444e-02	0.0	5.325291e-01	4.347302e-02	0.0	5.375146e-01	4.331672e-02	0.0	5.425000e-01	4.315496e-02	0.0	5.474852e-01	4.298715e-02	0.0	5.524702e-01	4.281293e-02	0.0	5.574549e-01	4.263352e-02	0.0	5.624395e-01	4.244914e-02	0.0	5.674240e-01	4.225980e-02	0.0	5.724082e-01	4.206550e-02	0.0	5.773922e-01	4.186624e-02	0.0	5.823760e-01	4.166202e-02	0.0	5.873597e-01	4.145284e-02	0.0	5.923431e-01	4.123870e-02	0.0	5.973263e-01	4.101960e-02	0.0	6.023092e-01	4.079519e-02	0.0	6.072919e-01	4.056363e-02	0.0	6.122742e-01	4.032595e-02	0.0	6.172563e-01	4.008321e-02	0.0	6.222382e-01	3.983620e-02	0.0	6.272199e-01	3.958546e-02	0.0	6.322014e-01	3.933141e-02	0.0	6.371828e-01	3.907434e-02	0.0	6.421640e-01	3.881443e-02	0.0	6.471451e-01	3.855179e-02	0.0	6.521260e-01	3.828537e-02	0.0	6.571062e-01	3.800526e-02	0.0	6.620851e-01	3.770492e-02	0.0	6.670630e-01	3.738797e-02	0.0	6.720413e-01	3.707595e-02	0.0	6.770208e-01	3.678419e-02	0.0	6.820012e-01	3.650926e-02	0.0	6.869820e-01	3.624092e-02	0.0	6.919627e-01	3.597123e-02	0.0	6.969429e-01	3.569285e-02	0.0	7.019221e-01	3.539703e-02	0.0	7.068995e-01	3.507131e-02	0.0	7.118744e-01	3.471065e-02	0.0	7.168473e-01	3.432167e-02	0.0	7.218187e-01	3
[...]
POINT_DATA 1814

SCALARS Density double 1
LOOKUP_TABLE default
4.193049e-01	1.501732e-01	1.205873e+00	1.224978e+00	1.224978e+00	1.224978e+00	3.838618e-01	3.562026e-01	3.330483e-01	3.150370e-01	2.994462e-01	2.855991e-01	2.635592e-01	2.493624e-01	2.267759e-01	2.138440e-01	1.904674e-01	1.702405e-01	1.461089e-01	1.327894e-01	1.207362e-01	1.083078e-01	9.112271e-02	7.028621e-02	5.667514e-02	4.241575e-02	3.394690e-02	2.430867e-02	1.806460e-02	1.170872e-02	7.027194e-03	4.618293e-03	3.128635e-03	1.768412e-03	1.177192e-03	8.681742e-04	5.052205e-04	1.608001e-04	8.029664e-04	8.859064e-03	2.608731e-01	2.710389e-01	3.197098e-01	3.728645e-01	4.280149e-01	4.630853e-01	4.847177e-01	4.991175e-01	5.125509e-01	5.223709e-01	5.397388e-01	5.458371e-01	5.458604e-01	5.567378e-01	5.672374e-01	5.772794e-01	5.974605e-01	6.081424e-01	6.078029e-01	6.175996e-01	6.250607e-01	6.287567e-01	6.329064e-01	6.376118e-01	6.465199e-01	6.560711e-01	6.645076e-01	6.676163e-01	6.745910e-01	6.791891e-01	6.843491e-01	6.908196e-01	6.966963e-01	7.027129e-01	7.039158e-01	7.044076e-01	7.073837e-01	7.102179e-01	7.158947e-01	7.207743e-01	7.277518e-01	7.343787e-01	7.372355e-01	7.400604e-01	7.428930e-01	7.421357e-01	7.442269e-01	7.468658e-01	7.498755e-01	7.533523e-01	7.562616e-01	7.592668e-01	7.625090e-01	7.656082e-01	7.681674e-01	7.705740e-01	7.734393e-01	7.779268e-01	7.819398e-01	7.865718e-01	7.871898e-01	7.887364e-01	7.914250e-01	7.953558e-01	8.015478e-01	8.076972e-01	8.132641e-01	8.144657e-01	8.172815e-01	8.206885e-01	8.245126e-01	8.292972e-01	8.323221e-01	8.344172e-01	8.369690e-01	8.422049e-01	8.440830e-01	8.458181e-01	8.495268e-01	8.564565e-01	8.678179e-01	8.749232e-01	8.781237e-01	8.836105e-01	8.891848e-01	8.946890e-01	9.032554e-01	9.105560e-01	9.167772e-01	9.195752e-01	9.244847e-01	9.279303e-01	9.364311e-01	9.478944e-01	9.582697e-01	9.685697e-01	9.772107e-01	9.865508e-01	9.929721e-01	1.001245e+00	1.009557e+00	1.018667e+00	1.021717e+00	1.031431e+00	1.044824e+00	1.070278e+00	1.087225e+00	1.101640e+00	1.113399e+00	1.115386e+00	1.108371e+00	1.097878e+00	1.159282e+00	1.215905e+00	1.221172e+00	1.229717e+00	1.238642e+00	1.257412e+00	1.275277e+00	1.307778e+00	1.349661e+00	1.402092e+00	1.446741e+00	1.481636e+00	1.523532e+00	1.585833e+00	1.664349e+00	1.741813e+00	1.840570e+00	1.950295e+00	2.109534e+00	2.286601e+00	2.616913e+00	3.249243e+00	4.174948e+00	4.740338e+00	5.393072e+00	6.026065e+00	5.740378e+00	4.920445e+00	4.817827e+00	4.434711e+00	3.613026e+00	3.107725e+00	2.800073e+00	2.615251e+00	2.296313e+00	2.251084e+00	2.017353e+00	1.949292e+00	1.674963e+00	1.601248e+00	1.666153e+00	1.603453e+00	1.476025e+00	1.488441e+00	1.430389e+00	1.374063e+00	1.339376e+00	1.337773e+00	1.285935e+00	1.310159e+00	1.269358e+00	1.213303e+00	1.196861e+00	1.182147e+00	1.148192e+00	1.154520e+00	1.126035e+00	1.120476e+00	1.101622e+00	1.091069e+00	1.078974e+00	1.069119e+00	1.067545e+00	1.060679e+00	1.057196e+00	1.047634e+00	1.019213e+00	1.027279e+00	1.018616e+00	9.890620e-01	9.949907e-01	9.716852e-01	9.820702e-01	9.697784e-01	9.559510e-01	9.577705e-01	9.563135e-01	9.511846e-01	9.426816e-01	9.363326e-01	9.302125e-01	9.238477e-01	9.159522e-01	9.104073e-01	9.060359e-01	9.019452e-01	8.968553e-01	8.936273e-01	8.914746e-01	8.887694e-01	8.861018e-01	8.827910e-01	8.807416e-01	8.840881e-01	8.857528e-01	8.775746e-01	8.735526e-01	8.696212e-01	8.631710e-01	8.642714e-01	8.608948e-01	8.506164e-01	8.445480e-01	8.461653e-01	8.459070e-01	8.441109e-01	8.405491e-01	8.382027e-01	8.360972e-01	8.347823e-01	8.330060e-01	8.316331e-01	8.307677e-01	8.289698e-01	8.261573e-01	8.233295e-01	8.209586e-01	8.180957e-01	8.172320e-01	8.107097e-01	8.056567e-01	8.011609e-01	7.921510e-01	7.883202e-01	7.864221e-01	7.826266e-01	7.781107e-01	7.763108e-01	7.766684e-01	7.781324e-01	7.772156e-01	7.742226e-01	7.727228e-01	7.709892e-01	7.702483e-01	7.717060e-01	7.684169e-01	7.644911e-01	7.600466e-01	7.563002e-01	7.531245e-01	7.500084e-01	7.458933e-01	7.426614e-01	7.398766e-01	7.369992e-01	7.332636e-01	7.302224e-01	7.276191e-01	7.245588e-01	7.200379e-01	7.165515e-01	7.139099e-01	7.118213e-01	7.118926e-01	7.073378e-01	7.025971e-01	7.046003e-01	7.030598e-01	6.951864e-01	6.874344e-01	6.850499e-01	6.803190e-01	6.745716e-01	6.756875e-01	6.799175e-01	6.835183e-01	6.844748e-01	6.830974e-01	6.763325e-01	6.650411e-01	6.476394e-01	6.367953e-01	6.383352e-01	6.354393e-01	6.291305e-01	6.285762e-01	6.276969e-01	6.260305e-01	6.234390e-01	6.180402e-01	6.161941e-01	6.188161e-01	6.155106e-01	6.024158e-01	5.925870e-01	5.916495e-01	5.927432e-01	5.976466e-01	5.965779e-01	5.876722e-01	5.813084e-01	5.850193e-01	5.392207e-01	1.231402e+00	1.240415e+00	1.227013e+00	1.224994e+00	1.224978e+00	1.224978e+00	1.224978e+00	1.224978e+00	1.224978e+00	1.224978e+00	1.224978e+00	1.224978e+00	1.224978e+00	1.224978e+00	1.224978e+00	1.224978e+00	1.224984e+00	1.227010e+00	1.235563e+00	1.227834e+00	1.224978e+00	1.225523e+00	1.224978e+00	1.234418e+00	1.224978e+00	1.224978e+00	1.233598e+00	1.246072e+00	6.694462e-01	1.336340e+00	1.224978e+00	1.224978e+00	1.664420e+00	1.224978e+00	1.178440e+00	1.481474e+00	3.831815e-01	1.225552e+00	1.154918e+00	1.224978e+00	1.224978e+00	8.007224e-01	1.224978e+00	1.871664e+00	1.483159e+00	1.760029e+00	1.266310e+00	1.512429e+00	1.089729e+00	2.937847e-01	5.658454e-01	9.477604e-01	1.602918e+00	1.465488e+00	1.250160e+00	3.574747e-01	1.240478e+00	2.023047e+00	2.018365e+00	1.621181e+00	1.224978e+00	1.224978e+00	1.224978e+00	1.420291e+00	1.189814e+00	1.089272e+00	9.711830e-01	2.389136e-01	1.489699e+00	9.141723e-01	1.371692e+00	1.315761e+00	1.619333e+00	1.687442e+00	1.687214e+00	2.242177e+00	1.614360e+00	1.007442e+00	8.550353e-01	6.581826e-01	9.763664e-01	1.143532e+00	1.238000e+00	1.402930e+00	1.432788e+00	1.698905e+00	2.009140e+00	1.616332e+00	1.365229e+00	1.379034e+00	1.321263e+00	1.274185e+00	1.084342e+00	1.086353e+00	1.224978e+00	9.913008e-01	9.477378e-01	1.343560e+00	1.763913e+00	1.957442e+00	8.258840e-01	7.665628e-01	9.024461e-01	9.075585e-01	9.358978e-01	9.353634e-01	1.070833e+00	1.055065e+00	1.070988e+00	1.312646e+00	1.104016e-01	1.124899e-01	1.133669e+00	1.224978e+00	1.224978e+00	1.253725e+00	1.851487e+00	1.224978e+00	9.447619e-01	1.224978e+00	8.855104e-01	1.224978e+00	7.785887e-01	1.237239e+00	1.806606e+00	2.246729e+00	2.587992e+00	2.833233e+00	1.432877e-01	1.845788e-01	8.337335e-01	8.397560e-01	7.854222e-01	7.868729e-01	7.976817e-01	7.255901e-01	7.112513e-01	1.308542e+00	1.480254e+00	5.890802e-01	1.434978e+00	1.232713e+00	2.178052e-01	4.393126e-01	1.224978e+00	1.224994e+00	1.475705e+00	1.727088e+00	1.829169e+00	2.163130e+00	7.808222e-01	8.026813e-01	9.430343e-01	1.359064e+00	1.401602e+00	1.228796e+00	1.141905e+00	8.964164e-01	9.058911e-01	9.251595e-01	1.060391e+00	6.727418e-01	9.654103e-01	7.107951e-01	7.248181e-01	1.224978e+00	5.998424e-01	8.331226e-01	8.052516e-01	1.224978e+00	8.312811e-01	7.932976e-01	1.027206e+00	6.823764e-01	9.155797e-01	9.256837e-01	9.517009e-01	9.555625e-01	8.173352e-01	8.296892e-01	8.479206e-01	9.195349e-01	1.224978e+00	2.313650e+00	2.120691e+00	1.224978e+00	1.225045e+00	8.711007e-01	1.224978e+00	1.589833e+00	1.039870e+00	1.112024e+00	1.122838e+00	1.149869e+00	1.202531e+00	1.230607e+00	1.224978e+00	1.224978e+00	1.234938e+00	7.740073e-01	1.272471e-01	1.345662e+00	5.700302e-02	2.888128e+00	8.286276e-01	1.041828e+00	1.227761e+00	9.854410e-01	6.040859e-02	9.442785e-01	7.255591e-01	7.440629e-01	8.921626e-01	8.622387e-01	7.343577e-01	1.871933e+00	8.329286e-01	6.438851e-01	7.719709e-01	7.461045e-01	6.917840e-01	7.133949e-01	7.095156e-01	1.012228e+00	1.827164e+00	7.262048e-01	6.863914e-01	1.893859e-01	6.446558e-01	6.479487e-01	6.314082e-01	8.241148e-01	1.225014e+00	1.233338e+00	1.224978e+00	1.224978e+00	7.700464e-02	9.571671e-01	5.800928e-01	1.224992e+00	3.648360e-02	1.393236e+00	2.216221e+00	1.224978e+00	1.359994e-01	1.200718e+00	1.746794e+00	1.224978e+00	1.280871e+00	6.938853e-01	6.718522e-01	2.507522e+00	1.235225e+00	1.625697e+00	1.002534e+00	9.433277e-01	3.131751e+00	1.953832e+00	1.319551e+00	2.174419e+00	1.224978e+00	1.224978e+00	8.079896e-01	8.927433e-01	1.124852e+00	8.465975e-01	7.204094e-01	1.227987e+00	7.390057e-01	3.950847e-02	7.578094e-01	1.203119e+00	1.195716e+00	1.193643e+00	1.236876e+00	1.348819e+00	1.251427e+00	1.026298e+00	1.068867e+00	8.590120e-01	1.499740e+00	1.302760e+00	1.396529e+00	1.224978e+00	4.893267e-01	1.229961e+00	7.478810e-01	1.224978e+00	7.710083e-01	1.792534e+00	1.224978e+00	2.761557e+00	9.869838e-01	1.418081e+00	1.610041e+00	1.190618e+00	2.489803e-01	5.785829e-01	9.348149e-01	1.078810e-01	7.846697e-01	5.009160e-01	4.942680e-02	7.690395e-01	7.588780e-01	9.213355e-01	1.626982e-01	1.233092e+00	1.687270e+00	1.849595e+00	2.059917e+00	8.610365e-01	8.723072e-01	4.100063e-01	4.884623e-01	8.719706e-01	1.234202e+00	7.949574e-01	1.224978e+00	8.020919e-01	8.435102e-01	8.328355e-01	8.899491e-01	9.138489e-01	9.043438e-01	9.937000e-01	1.079210e+00	8.155758e-01	8.080635e-01	2.183862e+00	3.075930e-01	9.629052e-01	7.773468e-01	7.948131e-01	1.499125e+00	6.960238e-01	6.373005e-01	7.089163e-01	8.306150e-02	7.284053e-01	1.224978e+00	6.729840e-01	2.282350e+00	2.489918e-02	3.886521e-01	1.224978e+00	6.773383e-01	6.538780e-01	7.257231e-01	1.224978e+00	6.262539e-01	7.415339e-01	1.234699e+00	6.786783e-01	8.365052e-01	8.203781e-01	1.584726e+00	1.534675e+00	1.225024e+00	7.551043e-01	8.529439e-01	7.706295e-01	7.806165e-01	1.253686e+00	8.674853e-01	2.630678e+00	2.879700e+00	1.401050e+00	2.255610e+00	2.405609e-01	1.864161e+00	9.363426e-01	1.226605e+00	1.143466e+00	9.369339e-01	1.550875e+00	9.952116e-01	1.224978e+00	1.551509e+00	1.063643e+00	1.013986e+00	1.225074e+00	6.024946e-01	5.269885e-01	7.580289e-01	9.642937e-01	1.224978e+00	1.094133e+00	1.226773e+00	1.050238e+00	9.761005e-01	1.265638e+00	1.230308e+00	1.551384e+00	1.833699e+00	6.345584e-01	8.699101e-01	7.166678e-01	8.033845e-01	7.082501e-01	7.120281e-01	1.402603e+00	1.224979e+00	1.224978e+00	1.276260e+00	3.520833e-01	1.381586e+00	6.516546e-01	6.426109e-01	1.288168e+00	1.167681e+00	9.069867e-01	1.510520e+00	5.925327e-01	6.100091e-01	9.986018e-01	1.224978e+00	1.224978e+00	1.054324e-02	1.224978e+00	1.378239e+00	1.981200e-01	1.329172e+00	6.231414e-01	2.419320e-01	6.414372e-01	9.333019e-03	1.224980e+00	1.029292e+00	1.156878e+00	1.185313e+00	8.947038e-01	1.271053e+00	7.925279e-01	1.351402e+00	1.378222e+00	7.906214e-01	1.550978e+00	8.782793e-01	8.898270e-01	2.276614e-01	1.048963e+00	1.323778e+00	1.976181e+00	2.091043e+00	1.224978e+00	1.531306e+00	1.327558e+00	2.049222e-01	1.224978e+00	1.183341e+00	2.212318e+00	1.131484e+00	1.659907e+00	1.368301e+00	1.330617e+00	6.076998e-02	1.224978e+00	6.499692e-01	1.224978e+00	1.626703e+00	2.942484e-02	3.064972e+00	1.224978e+00	1.224978e+00	7.468572e-01	1.351493e+00	1.367073e+00	3.256608e-02	1.224978e+00	5.205855e-01	1.859135e+00	1.289463e+00	6.929255e-01	8.407170e-01	1.263337e+00	9.416653e-01	1.196367e+00	1.579483e+00	2.615076e-01	1.225317e+00	7.123249e-01	1.649543e-01	1.224978e+00	9.713755e-01	8.079204e-01	1.413784e-01	1.231711e+00	1.086144e+00	1.224978e+00	1.531760e+00	8.557343e-01	1.410940e+00	1.444624e+00	5.232707e-01	1.044242e+00	1.138069e+00	8.039111e-01	1.224978e+00	1.074580e+00	8.691474e-01	8.266818e-01	1.583649e+00	1.226649e+00	8.388997e-01	4.870143e+00	1.306287e+00	1.224978e+00	1.224978e+00	1.399879e+00	2.039901e+00	2.854376e+00	3.305647e+00	3.368221e+00	1.224978e+00	1.012692e+00	8.353892e-01	1.224978e+00	1.224978e+00	9.751088e-01	1.225031e+00	3.666354e-01	8.024750e-01	1.224978e+00	1.538932e+00	1.219016e+00	1.047622e+00	1.224978e+00	9.116205e-01	7.784570e-01	1.411433e+00	1.010506e+00	1.225129e+00	1.221470e+00	6.859727e-01	7.752521e-01	8.042573e-01	1.688709e+00	3.998399e+00	1.784159e+00	2.247603e+00	1.225597e+00	7.161109e-01	7.242093e-01	1.023560e+00	1.467342e-01	3.682564e-01	4.553259e+00	7.527112e-01	7.589850e-01	1.159042e+00	9.266858e-01	8.858388e-01	1.958511e+00	2.068758e+00	8.173233e-01	1.224978e+00	1.224978e+00	9.012374e-01	1.235760e+00	1.224978e+00	1.224978e+00	1.224978e+00	1.224978e+00	7.464066e-01	1.224978e+00	4.745918e-01	6.439736e-01	1.166838e+00	2.385226e-01	3.028611e-01	3.099683e-01	7.340360e-01	1.225196e+00	1.762686e+00	5.939720e-01	1.262627e+00	6.745821e-01	1.821778e+00	1.624585e+00	8.422926e-01	9.824828e-01	8.564467e-01	9.081661e-01	1.537620e+00	1.229586e+00	1.047939e+00	7.856764e-01	9.052734e-01	1.571604e+00	8.971851e-01	1.224978e+00	1.371007e+00	1.224978e+00	1.131882e+00	6.386521e-01	8.630119e-01	1.059245e+00	1.674155e+00	1.682176e+00	6.732070e-01	9.137451e-01	8.817368e-01	1.062667e+00	1.225165e+00	7.103721e-01	8.346791e-01	2.302640e+00	8.985831e-01	7.258703e-01	1.224979e+00	8.069724e-01	3.936853e-01	1.473533e+00	1.629107e+00	7.472045e-01	2.344088e-01	1.224978e+00	1.226633e+00	1.281005e+00	6.118822e-01	1.317438e+00	7.853389e-01	6.194864e-01	1.088698e+00	4.664065e-01	1.228315e+00	1.225310e+00	1.755044e+00	1.599880e+00	1.408229e+00	7.481276e-01	1.008511e+00	6.463377e-01	6.868002e-01	1.224978e+00	1.043920e+00	1.065719e+00	1.224978e+00	1.196476e-02	1.240814e+00	9.106740e-01	1.005326e+00	7.030714e-01	1.159298e+00	7.146934e-02	1.506504e+00	1.224978e+00	1.224978e+00	1.001153e+00	1.026818e+00	1.219283e+00	1.112176e+00	2.441964e+00	1.319298e+00	6.065118e-01	1.007054e+00	1.045617e+00	7.036416e-01	9.486007e-01	7.702902e-01	2.190601e+00	8.884387e-01	1.926076e+00	1.547442e+00	1.224978e+00	8.986052e-01	1.339102e+00	1.083919e-01	3.415395e-01	9.515707e-01	1.224984e+00	8.621721e-01	3.176943e+00	8.009510e-01	1.224978e+00	7.525112e-02	1.431698e+00	1.485485e+00	1.268556e+00	4.071747e-03	1.224978e+00	1.629484e+00	8.296000e-01	1.224978e+00	1.324246e+00	1.279866e+00	1.224978e+00	9.070978e-01	8.030402e-01	2.721537e+00	2.300603e+00	1.226786e+00	1.455889e+00	1.224978e+00	1.107255e+00	1.230869e+00	1.432147e+00	4.677028e+00	7.416966e-01	7.356518e-01	7.490111e-01	7.545372e-01	1.392976e+00	9.920763e-01	5.340363e-01	1.440242e+00	1.224978e+00	6.577472e-01	8.774235e-01	2.558754e+00	7.665621e-01	7.607799e-01	2.599703e-01	1.224978e+00	1.680181e+00	7.189425e-01	1.272316e+00	6.927876e-01	6.522483e-01	8.424967e-01	8.462822e-01	9.475650e-01	1.107939e+00	9.756741e-01	9.945383e-01	1.224979e+00	1.224978e+00	7.729804e-01	7.794789e-01	7.791583e-01	7.731809e-01	1.032635e+00	1.548028e+00	8.508747e-01	8.550724e-01	8.683075e-01	5.553531e-01	8.607682e-01	6.076461e-01	8.634868e-01	8.450110e-02	1.224978e+00	2.113283e+00	1.318252e+00	4.268171e-01	8.648154e-01	1.150034e+00	4.904850e-01	9.642240e-01	1.224978e+00	7.776558e-01	1.326675e+00	1.090174e+00	1.224978e+00	1.076777e+00	7.775629e-02	1.240733e-01	1.224978e+00	2.038936e-01	1.224978e+00	1.792239e+00	1.160656e+00	4.809557e-01	1.501771e+00	7.924191e-01	1.261139e+00	9.170797e-01	9.308405e-01	1.520288e+00	1.251660e+00	1.224978e+00	4.340971e-01	1.857061e+00	1.687703e-01	5.026997e-02	7.321078e-01	9.098226e-01	1.275104e+00	9.180674e-01	9.214996e-01	1.628790e+00	7.528718e-01	7.269403e-01	2.140530e-02	1.394152e+00	8.372779e-01	8.480983e-01	8.002406e-01	3.449449e-02	1.375074e-01	1.224978e+00	2.440981e+00	1.235412e+00	8.169497e-01	8.085678e-01	1.224978e+00	1.260769e+00	4.844288e-03	1.769991e-01	1.224978e+00	1.309878e+00	9.370377e-01	9.269980e-01	6.729379e-02	9.007210e-01	1.912210e+00	1.118791e+00	7.094916e-01	8.549636e-01	7.993798e-01	8.892416e-01	1.285291e+00	9.138469e-01	1.224978e+00	7.955528e-01	7.881769e-01	1.103291e+00	1.198265e+00	1.262290e+00	6.047782e-02	1.036971e+00	7.638087e-01	7.705334e-01	7.847339e-01	1.319401e+00	1.107390e+00	1.694037e+00	1.133058e+00	9.642949e-01	9.511078e-01	6.604622e-01	6.707034e-01	1.224992e+00	1.425699e-01	7.008417e-01	1.028795e+00	7.098661e-01	1.224978e+00	1.223813e+00	8.187967e-01	8.640653e-01	3.818656e+00	9.606351e-01	8.813849e-01	9.834480e-01	1.212054e+00	7.611630e-01	1.225214e+00	1.224978e+00	1.631618e+00	9.861677e-02	8.874187e-01	9.814026e-01	9.981821e-01	9.958414e-01	1.224978e+00	6.219274e-01	6.415537e-01	2.204518e+00	1.050460e+00	8.031293e-01	1.110287e+00	7.962063e-01	7.871983e-01	1.029627e+00	1.915833e-01	6.725274e-01	1.475327e+00	5.695271e-01	5.803263e-01	7.174994e-01	1.053447e+00	8.753011e-01	6.602122e-01	8.626534e-01	7.514782e-01	7.601729e-01	7.472362e-01	7.840364e-01	1.804700e+00	1.650849e+00	6.287632e-01	7.091354e-01	1.610641e+00	6.340403e-01	7.314052e-01	1.988315e+00	1.131404e+00	1.224978e+00	1.095096e-01	1.627588e-01	1.139784e+00	7.168855e-01	7.224417e-01	6.994959e-01	8.733416e-01	1.038681e+00	1.076465e+00	8.296054e-01	1.004401e+00	1.022441e+00	1.248948e+00	7.294854e-01	1.253816e+00	1.184378e+00	8.029856e-01	1.556067e+00	1.499754e+00	4.748221e-01	8.369559e-01	9.400308e-01	8.869781e-01	8.802345e-01	1.303828e+00	1.226098e+00	7.862070e-01	1.224978e+00	9.316362e-01	1.064592e+00	2.011730e+00	9.072927e-01	1.810485e+00	9.128459e-01	1.204706e+00	1.056225e+00	8.158411e-01	1.344042e+00	1.253709e+00	9.835654e-01	9.652644e-01	5.436988e-01	1.469239e+00	1.307479e-01	6.905519e-01	1.407590e-02	6.078952e-01	2.050269e-01	8.660773e-01	1.233578e+00	8.361266e-01	6.389697e-01	2.315965e+00	1.020422e+00	9.032053e-01	9.308167e-01	8.562182e-01	6.577269e-03	8.990606e-01	7.454898e-01	3.022543e-01	1.565902e+00	1.985448e-01	8.458158e-01	8.298672e-01	8.206492e-01	8.020300e-01	1.618423e-02	1.224978e+00	1.684076e+00	5.081167e-01	7.946401e-01	6.253712e-01	3.693341e-01	7.798053e-01	6.894052e-01	1.275696e+00	6.102694e-01	2.113520e+00	1.128603e+00	7.666609e-01	6.464919e-01	4.228869e-02	6.888603e-01	7.051414e-01	7.565886e-01	7.200328e-01	8.446880e-01	8.213011e-01	7.337401e-01	7.286649e-01	7.393213e-01	6.912051e-01	7.418217e-01	7.467809e-01	8.368304e-01	9.532034e-01	7.588936e-01	7.537873e-01	9.857472e-01	1.086132e+00	7.093985e-01	6.753965e-01	5.350219e-01	7.788443e-01	7.719492e-01	7.664067e-01	6.506281e-01	8.353556e-01	8.385386e-01	8.655126e-01	8.375349e-01	8.438153e-01	8.464650e-01	8.575661e-01	8.520713e-01	7.087460e-01	8.675575e-01	6.501762e-01	9.625994e-01	3.041298e-01	6.087868e-01	6.392589e-01	7.211555e-01	1.280644e+00	1.224978e+00	7.817582e-01	5.560449e-01	8.506612e-01	5.893953e-01	8.270878e-01	6.215651e-01	8.066992e-01	5.838919e-01	7.907075e-01	1.226000e+00	1.225392e+00	1.889394e+00	1.606249e+00	2.969499e-03	1.228457e+00	1.242945e+00	6.014625e-01	6.031642e-01	1.228812e+00	1.224978e+00	1.224978e+00	8.706144e-01	7.516218e-01	1.224978e+00	4.401998e-01	1.224978e+00	2.637199e-01	1.429241e+00	1.397196e+00	9.917050e-01	8.930974e-01	9.067617e-01	7.301483e-01	1.225829e+00	1.224978e+00	2.506428e-01	1.224978e+00	9.083117e-01	7.773066e-01	7.874549e-01	1.224978e+00	8.457317e-01	8.471775e-01	8.988887e-01	7.223684e-01	9.083045e-01	1.084113e+00	1.225241e+00	1.224979e+00	9.651697e-01	1.163205e+00	1.224978e+00	1.357504e+00	1.224978e+00	1.250026e+00	1.126994e+00	9.215696e-01	9.141310e-01	1.388728e+00	1.713791e+00	9.952224e-01	1.188881e-01	4.464383e-03	8.084877e-01	1.041042e-01	1.192115e+00	1.224978e+00	1.336787e+00	9.454648e-01	9.347974e-01	2.678285e+00	9.627234e-01	1.229162e+00	7.486372e-01	2.171373e+00	1.010448e+00	1.895875e+00	1.744971e+00	1.370566e+00	1.161134e+00	1.224978e+00	1.224978e+00	9.761251e-01	9.989511e-01	9.272744e-01	1.006882e+00	1.085491e+00	1.096852e+00	1.090510e+00	7.664633e-01	5.907071e-01	9.990113e-01	1.622769e+00	2.270738e+00	7.841314e-01	1.223350e+00	9.407017e-01	1.435125e+00	6.424603e-01	1.245809e+00	7.099377e-01	1.445496e+00	7.279882e-01	7.418107e-01	1.894230e+00	1.551480e+00	8.121321e-01	8.380676e-01	1.284173e+00	1.224978e+00	1.364334e+00	1.826786e+00	1.448326e+00	7.640745e-01	1.107690e+00	1.266323e+00	6.690400e-01	1.907263e-01	1.562582e+00	1.459089e+00	1.518708e+00	9.043604e-01	1.855945e+00	1.224983e+00	1.224978e+00	7.653028e-01	1.207760e+00	1.225108e+00	1.041057e+00	1.224978e+00	9.825934e-01	1.241813e+00	1.035149e+00	1.138381e+00	7.860135e-01	1.056391e+00	2.229418e+00	3.783115e-01	9.620696e-01	1.225026e+00	1.238265e+00	1.242998e+00	1.339282e+00	1.175002e+00	6.533940e-01	1.224978e+00	1.290844e+00	1.188500e+00	1.612058e+00	7.722957e-01	8.421850e-01	2.042467e-01	7.890742e-01	1.921177e+00	6.905485e-01	7.700102e-01	9.568106e-01	5.108642e-01	1.224978e+00	1.224978e+00	1.624413e+00	1.416574e+00	5.658835e-01	6.455532e-01	1.118420e+00	8.514215e-01	9.736777e-01	8.701488e-01	1.224978e+00	1.787417e+00	9.553659e-02	1.149077