# vtk DataFile Version 3.0
vtk output
ASCII
DATASET UNSTRUCTURED_GRID
POINTS 342 double
8.250000e-01	2.410000e-02	0.0	6.750000e-01	-2.600000e-02	0.0	8.200833e-01	2.456923e-02	0.0	8.151549e-01	2.490001e-02	0.0	8.102190e-01	2.508537e-02	0.0	8.052802e-01	2.517163e-02	0.0	8.003408e-01	2.521650e-02	0.0	7.954013e-01	2.523132e-02	0.0	7.904618e-01	2.520483e-02	0.0	7.855224e-01	2.516420e-02	0.0	7.805833e-01	2.509529e-02	0.0	7.756466e-01	2.493036e-02	0.0	7.707124e-01	2.469981e-02	0.0	7.657796e-01	2.444058e-02	0.0	7.608526e-01	2.409097e-02	0.0	7.559367e-01	2.360940e-02	0.0	7.510329e-01	2.301599e-02	0.0	7.461350e-01	2.237616e-02	0.0	7.412476e-01	2.166038e-02	0.0	7.363776e-01	2.083490e-02	0.0	7.315364e-01	1.985529e-02	0.0	7.267391e-01	1.867961e-02	0.0	7.219830e-01	1.734668e-02	0.0	7.172706e-01	1.586641e-02	0.0	7.126090e-01	1.423348e-02	0.0	7.080114e-01	1.242844e-02	0.0	7.034993e-01	1.041951e-02	0.0	6.990960e-01	8.182443e-03	0.0	6.948375e-01	5.681373e-03	0.0	6.907683e-01	2.883278e-03	0.0	6.869638e-01	-2.636363e-04	0.0	6.834740e-01	-3.757330e-03	0.0	6.802886e-01	-7.530685e-03	0.0	6.775300e-01	-1.162111e-02	0.0	6.758043e-01	-1.623651e-02	0.0	6.748154e-01	-2.107458e-02	0.0	6.702417e-01	-2.749451e-02	0.0	6.655309e-01	-2.913408e-02	0.0	6.607818e-01	-3.065779e-02	0.0	6.559553e-01	-3.191393e-02	0.0	6.510686e-01	-3.291155e-02	0.0	6.461471e-01	-3.372292e-02	0.0	6.412103e-01	-3.443514e-02	0.0	6.362646e-01	-3.508362e-02	0.0	6.313132e-01	-3.568635e-02	0.0	6.263576e-01	-3.625413e-02	0.0	6.213989e-01	-3.679405e-02	0.0	6.164378e-01	-3.731109e-02	0.0	6.114747e-01	-3.780888e-02	0.0	6.065099e-01	-3.829024e-02	0.0	6.015438e-01	-3.875739e-02	0.0	5.965762e-01	-3.920718e-02	0.0	5.916058e-01	-3.962671e-02	0.0	5.866332e-01	-4.001780e-02	0.0	5.816586e-01	-4.038333e-02	0.0	5.766824e-01	-4.072621e-02	0.0	5.717049e-01	-4.104935e-02	0.0	5.667263e-01	-4.135568e-02	0.0	5.617468e-01	-4.164815e-02	0.0	5.567668e-01	-4.192969e-02	0.0	5.517863e-01	-4.220326e-02	0.0	5.468053e-01	-4.246851e-02	0.0	5.418235e-01	-4.271610e-02	0.0	5.368408e-01	-4.294680e-02	0.0	5.318574e-01	-4.316237e-02	0.0	5.268735e-01	-4.336458e-02	0.0	5.218892e-01	-4.355521e-02	0.0	5.169044e-01	-4.373603e-02	0.0	5.119194e-01	-4.390883e-02	0.0	5.069342e-01	-4.407538e-02	0.0	5.019488e-01	-4.423747e-02	0.0	4.969633e-01	-4.439518e-02	0.0	4.919775e-01	-4.454318e-02	0.0	4.869914e-01	-4.468169e-02	0.0	4.820051e-01	-4.481159e-02	0.0	4.770186e-01	-4.493378e-02	0.0	4.720319e-01	-4.504914e-02	0.0	4.670451e-01	-4.515858e-02	0.0	4.620582e-01	-4.526297e-02	0.0	4.570712e-01	-4.536322e-02	0.0	4.520841e-01	-4.546022e-02	0.0	4.470970e-01	-4.555416e-02	0.0	4.421098e-01	-4.564264e-02	0.0	4.371224e-01	-4.572563e-02	0.0	4.321350e-01	-4.580342e-02	0.0	4.271476e-01	-4.587630e-02	0.0	4.221600e-01	-4.594458e-02	0.0	4.171724e-01	-4.600856e-02	0.0	4.121848e-01	-4.606852e-02	0.0	4.071971e-01	-4.612477e-02	0.0	4.022093e-01	-4.617761e-02	0.0	3.972216e-01	-4.622731e-02	0.0	3.922338e-01	-4.627386e-02	0.0	3.872460e-01	-4.631695e-02	0.0	3.822581e-01	-4.635630e-02	0.0	3.772702e-01	-4.639160e-02	0.0	3.722823e-01	-4.642256e-02	0.0	3.672944e-01	-4.644888e-02	0.0	3.623064e-01	-4.647027e-02	0.0	3.573184e-01	-4.648641e-02	0.0	3.523304e-01	-4.649702e-02	0.0	3.473424e-01	-4.650195e-02	0.0	3.423544e-01	-4.650180e-02	0.0	3.373664e-01	-4.649667e-02	0.0	3.323784e-01	-4.648657e-02	0.0	3.273904e-01	-4.647149e-02	0.0	3.224024e-01	-4.645144e-02	0.0	3.174145e-01	-4.642640e-02	0.0	3.124266e-01	-4.639640e-02	0.0	3.074387e-01	-4.636141e-02	0.0	3.024508e-01	-4.632146e-02	0.0	2.974630e-01	-4.627689e-02	0.0	2.924752e-01	-4.622950e-02	0.0	2.874875e-01	-4.617877e-02	0.0	2.824998e-01	-4.612382e-02	0.0	2.775121e-01	-4.606373e-02	0.0	2.725246e-01	-4.599764e-02	0.0	2.675371e-01	-4.592463e-02	0.0	2.625497e-01	-4.584382e-02	0.0	2.575625e-01	-4.575431e-02	0.0	2.525755e-01	-4.565522e-02	0.0	2.475887e-01	-4.554624e-02	0.0	2.426020e-01	-4.543035e-02	0.0	2.376155e-01	-4.530762e-02	0.0	2.326292e-01	-4.517744e-02	0.0	2.276431e-01	-4.503923e-02	0.0	2.226573e-01	-4.489239e-02	0.0	2.176717e-01	-4.473633e-02	0.0	2.126864e-01	-4.457046e-02	0.0	2.077015e-01	-4.439419e-02	0.0	2.027171e-01	-4.420693e-02	0.0	1.977330e-01	-4.400799e-02	0.0	1.927495e-01	-4.379700e-02	0.0	1.877664e-01	-4.357532e-02	0.0	1.827837e-01	-4.334400e-02	0.0	1.778015e-01	-4.310377e-02	0.0	1.728197e-01	-4.285500e-02	0.0	1.678383e-01	-4.259781e-02	0.0	1.628574e-01	-4.233199e-02	0.0	1.578770e-01	-4.205697e-02	0.0	1.528972e-01	-4.177159e-02	0.0	1.479182e-01	-4.147209e-02	0.0	1.429409e-01	-4.114406e-02	0.0	1.379656e-01	-4.078855e-02	0.0	1.329920e-01	-4.041019e-02	0.0	1.280197e-01	-4.001415e-02	0.0	1.230483e-01	-3.960776e-02	0.0	1.180765e-01	-3.920574e-02	0.0	1.131360e-01	-3.893347e-02	0.0	1.081762e-01	-3.840417e-02	0.0	1.032165e-01	-3.787343e-02	0.0	9.825732e-02	-3.733784e-02	0.0	9.329916e-02	-3.679300e-02	0.0	8.834247e-02	-3.623492e-02	0.0	8.338796e-02	-3.565781e-02	0.0	7.843699e-02	-3.505112e-02	0.0	7.349287e-02	-3.439122e-02	0.0	6.855769e-02	-3.366740e-02	0.0	6.363195e-02	-3.288192e-02	0.0	5.871631e-02	-3.203546e-02	0.0	5.381061e-02	-3.113320e-02	0.0	4.891347e-02	-3.018549e-02	0.0	4.403198e-02	-2.916060e-02	0.0	3.917352e-02	-2.803164e-02	0.0	3.434085e-02	-2.679688e-02	0.0	2.953784e-02	-2.545181e-02	0.0	2.478800e-02	-2.392988e-02	0.0	2.009644e-02	-2.223661e-02	0.0	1.551032e-02	-2.027948e-02	0.0	1.112795e-02	-1.790062e-02	0.0	7.047202e-03	-1.503797e-02	0.0	3.675123e-03	-1.139161e-02	0.0	1.300145e-03	-7.015855e-03	0.0	1.326638e-04	-2.176957e-03	0.0	2.217383e-04	2.793605e-03	0.0	1.540030e-03	7.590842e-03	0.0	4.036241e-03	1.189934e-02	0.0	7.536443e-03	1.542380e-02	0.0	1.166220e-02	1.822125e-02	0.0	1.607252e-02	2.054810e-02	0.0	2.067942e-02	2.245653e-02	0.0	2.537814e-02	2.412978e-02	0.0	3.013517e-02	2.562907e-02	0.0	3.494313e-02	2.695651e-02	0.0	3.977903e-02	2.817856e-02	0.0	4.464058e-02	2.929413e-02	0.0	4.952465e-02	3.030673e-02	0.0	5.442291e-02	3.124862e-02	0.0	5.932980e-02	3.214441e-02	0.0	6.424671e-02	3.298342e-02	0.0	6.917368e-02	3.376116e-02	0.0	7.410996e-02	3.447739e-02	0.0	7.905357e-02	3.514141e-02	0.0	8.400164e-02	3.577125e-02	0.0	8.895348e-02	3.637079e-02	0.0	9.390869e-02	3.694185e-02	0.0	9.886703e-02	3.748509e-02	0.0	1.038284e-01	3.800026e-02	0.0	1.087926e-01	3.848638e-02	0.0	1.137596e-01	3.894339e-02	0.0	1.187290e-01	3.937456e-02	0.0	1.237004e-01	3.978112e-02	0.0	1.286736e-01	4.016467e-02	0.0	1.336484e-01	4.052730e-02	0.0	1.386246e-01	4.087128e-02	0.0	1.436018e-01	4.119899e-02	0.0	1.485799e-01	4.151275e-02	0.0	1.535588e-01	4.181381e-02	0.0	1.585385e-01	4.210168e-02	0.0	1.635189e-01	4.237782e-02	0.0	1.684998e-01	4.264333e-02	0.0	1.734813e-01	4.289891e-02	0.0	1.784632e-01	4.314500e-02	0.0	1.834456e-01	4.338179e-02	0.0	1.884284e-01	4.360928e-02	0.0	1.934117e-01	4.382724e-02	0.0	1.983953e-01	4.403525e-02	0.0	2.033794e-01	4.423247e-02	0.0	2.083640e-01	4.441824e-02	0.0	2.133489e-01	4.459309e-02	0.0	2.183342e-01	4.475763e-02	0.0	2.233198e-01	4.491242e-02	0.0	2.283057e-01	4.505808e-02	0.0	2.332918e-01	4.519519e-02	0.0	2.382782e-01	4.532434e-02	0.0	2.432647e-01	4.544614e-02	0.0	2.482514e-01	4.556116e-02	0.0	2.532382e-01	4.566898e-02	0.0	2.582253e-01	4.576674e-02	0.0	2.632125e-01	4.585504e-02	0.0	2.681999e-01	4.593476e-02	0.0	2.731874e-01	4.600680e-02	0.0	2.781750e-01	4.607205e-02	0.0	2.831626e-01	4.613140e-02	0.0	2.881503e-01	4.618574e-02	0.0	2.931381e-01	4.623597e-02	0.0	2.981259e-01	4.628298e-02	0.0	3.031137e-01	4.632705e-02	0.0	3.081015e-01	4.636635e-02	0.0	3.130894e-01	4.640067e-02	0.0	3.180774e-01	4.643002e-02	0.0	3.230653e-01	4.645439e-02	0.0	3.280533e-01	4.647378e-02	0.0	3.330413e-01	4.648820e-02	0.0	3.380293e-01	4.649764e-02	0.0	3.430173e-01	4.650211e-02	0.0	3.480053e-01	4.650160e-02	0.0	3.529933e-01	4.649577e-02	0.0	3.579813e-01	4.648351e-02	0.0	3.629693e-01	4.646523e-02	0.0	3.679572e-01	4.644153e-02	0.0	3.729452e-01	4.641301e-02	0.0	3.779331e-01	4.638027e-02	0.0	3.829209e-01	4.634389e-02	0.0	3.879088e-01	4.630448e-02	0.0	3.928966e-01	4.626263e-02	0.0	3.978844e-01	4.621894e-02	0.0	4.028723e-01	4.617412e-02	0.0	4.078601e-01	4.612868e-02	0.0	4.128478e-01	4.608182e-02	0.0	4.178356e-01	4.603267e-02	0.0	4.228234e-01	4.598032e-02	0.0	4.278110e-01	4.592389e-02	0.0	4.327987e-01	4.586247e-02	0.0	4.377862e-01	4.579518e-02	0.0	4.427737e-01	4.572113e-02	0.0	4.477610e-01	4.563941e-02	0.0	4.527482e-01	4.554920e-02	0.0	4.577353e-01	4.545055e-02	0.0	4.627221e-01	4.534434e-02	0.0	4.677089e-01	4.523146e-02	0.0	4.726955e-01	4.511279e-02	0.0	4.776819e-01	4.498925e-02	0.0	4.826683e-01	4.486171e-02	0.0	4.876546e-01	4.473107e-02	0.0	4.926409e-01	4.459822e-02	0.0	4.976271e-01	4.446405e-02	0.0	5.026133e-01	4.432929e-02	0.0	5.075994e-01	4.419331e-02	0.0	5.125855e-01	4.405543e-02	0.0	5.175716e-01	4.391505e-02	0.0	5.225575e-01	4.377159e-02	0.0	5.275433e-01	4.362444e-02	0.0	5.325291e-01	4.347302e-02	0.0	5.375146e-01	4.331672e-02	0.0	5.425000e-01	4.315496e-02	0.0	5.474852e-01	4.298715e-02	0.0	5.524702e-01	4.281293e-02	0.0	5.574549e-01	4.263352e-02	0.0	5.624395e-01	4.244914e-02	0.0	5.674240e-01	4.225980e-02	0.0	5.724082e-01	4.206550e-02	0.0	5.773922e-01	4.186624e-02	0.0	5.823760e-01	4.166202e-02	0.0	5.873597e-01	4.145284e-02	0.0	5.923431e-01	4.123870e-02	0.0	5.973263e-01	4.101960e-02	0.0	6.023092e-01	4.079519e-02	0.0	6.072919e-01	4.056363e-02	0.0	6.122742e-01	4.032595e-02	0.0	6.172563e-01	4.008321e-02	0.0	6.222382e-01	3.983620e-02	0.0	6.272199e-01	3.958546e-02	0.0	6.322014e-01	3.933141e-02	0.0	6.371828e-01	3.907434e-02	0.0	6.421640e-01	3.881443e-02	0.0	6.471451e-01	3.855179e-02	0.0	6.521260e-01	3.828537e-02	0.0	6.571062e-01	3.800526e-02	0.0	6.620851e-01	3.770492e-02	0.0	6.670630e-01	3.738797e-02	0.0	6.720413e-01	3.707595e-02	0.0	6.770208e-01	3.678419e-02	0.0	6.820012e-01	3.650926e-02	0.0	6.869820e-01	3.624092e-02	0.0	6.919627e-01	3.597123e-02	0.0	6.969429e-01	3.569285e-02	0.0	7.019221e-01	3.539703e-02	0.0	7.068995e-01	3.507131e-02	0.0	7.118744e-01	3.471065e-02	0.0	7.168473e-01	3.432167e-02	0.0	7.218187e-01	3.391569e-02	0.0	7.267900e-01	3.350753e-02	0.0	7.317622e-01	3.311065e-02	0.0	7.367346e-01	3.271609e-02	0.0	7.417068e-01	3.231966e-02	0.0	7.466789e-01	3.192136e-02	0.0	7.516508e-01	3.152103e-02	0.0	7.566226e-01	3.111866e-02	0.0	7.615945e-01	3.071801e-02	0.0	7.665662e-01	3.031506e-02	0.0	7.715370e-01	2.990123e-02	0.0	7.765057e-01	2.946324e-02	0.0	7.814704e-01	2.898129e-02	0.0	7.864328e-01	2.847694e-02	0.0	7.913982e-01	2.800244e-02	0.0	7.963678e-01	2.757432e-02	0.0	8.013380e-01	2.715338e-02	0.0	8.063049e-01	2.669536e-02	0.0	8.112698e-01	2.621555e-02	0.0	8.162357e-01	2.574654e-02	0.0	8.212019e-01	2.528105e-02	0.0	
CELLS 342	1026
2	1	36	2	36	37	2	37	38	2	38	39	2	39	40	2	40	41	2	41	42	2	42	43	2	43	44	2	44	45	2	45	46	2	46	47	2	47	48	2	48	49	2	49	50	2	50	51	2	51	52	2	52	53	2	53	54	2	54	55	2	55	56	2	56	57	2	57	58	2	58	59	2	59	60	2	60	61	2	61	62	2	62	63	2	63	64	2	64	65	2	65	66	2	66	67	2	67	68	2	68	69	2	69	70	2	70	71	2	71	72	2	72	73	2	73	74	2	74	75	2	75	76	2	76	77	2	77	78	2	78	79	2	79	80	2	80	81	2	81	82	2	82	83	2	83	84	2	84	85	2	85	86	2	86	87	2	87	88	2	88	89	2	89	90	2	90	91	2	91	92	2	92	93	2	93	94	2	94	95	2	95	96	2	96	97	2	97	98	2	98	99	2	99	100	2	100	101	2	101	102	2	102	103	2	103	104	2	104	105	2	105	106	2	106	107	2	107	108	2	108	109	2	109	110	2	110	111	2	111	112	2	112	113	2	113	114	2	114	115	2	115	116	2	116	117	2	117	118	2	118	119	2	119	120	2	120	121	2	121	122	2	122	123	2	123	124	2	124	125	2	125	126	2	126	127	2	127	128	2	128	129	2	129	130	2	130	131	2	131	132	2	132	133	2	133	134	2	134	135	2	135	136	2	136	137	2	137	138	2	138	139	2	139	140	2	140	141	2	141	142	2	142	143	2	143	144	2	144	145	2	145	146	2	146	147	2	147	148	2	148	149	2	149	150	2	150	151	2	151	152	2	152	153	2	153	154	2	154	155	2	155	156	2	156	157	2	157	158	2	158	159	2	159	160	2	160	161	2	161	162	2	162	163	2	163	164	2	164	165	2	165	166	2	166	167	2	167	168	2	168	169	2	169	170	2	170	171	2	171	172	2	172	173	2	173	174	2	174	175	2	175	176	2	176	177	2	177	178	2	178	179	2	179	180	2	180	181	2	181	182	2	182	183	2	183	184	2	184	185	2	185	186	2	186	187	2	187	188	2	188	189	2	189	190	2	190	191	2	191	192	2	192	193	2	193	194	2	194	195	2	195	196	2	196	197	2	197	198	2	198	199	2	199	200	2	200	201	2	201	202	2	202	203	2	203	204	2	204	205	2	205	206	2	206	207	2	207	208	2	208	209	2	209	210	2	210	211	2	211	212	2	212	213	2	213	214	2	214	215	2	215	216	2	216	217	2	217	218	2	218	219	2	219	220	2	220	221	2	221	222	2	222	223	2	223	224	2	224	225	2	225	226	2	226	227	2	227	228	2	228	229	2	229	230	2	230	231	2	231	232	2	232	233	2	233	234	2	234	235	2	235	236	2	236	237	2	237	238	2	238	239	2	239	240	2	240	241	2	241	242	2	242	243	2	243	244	2	244	245	2	245	246	2	246	247	2	247	248	2	248	249	2	249	250	2	250	251	2	251	252	2	252	253	2	253	254	2	254	255	2	255	256	2	256	257	2	257	258	2	258	259	2	259	260	2	260	261	2	261	262	2	262	263	2	263	264	2	264	265	2	265	266	2	266	267	2	267	268	2	268	269	2	269	270	2	270	271	2	271	272	2	272	273	2	273	274	2	274	275	2	275	276	2	276	277	2	277	278	2	278	279	2	279	280	2	280	281	2	281	282	2	282	283	2	283	284	2	284	285	2	285	286	2	286	287	2	287	288	2	288	289	2	289	290	2	290	291	2	291	292	2	292	293	2	293	294	2	294	295	2	295	296	2	296	297	2	297	298	2	298	299	2	299	300	2	300	301	2	301	302	2	302	303	2	303	304	2	304	305	2	305	306	2	306	307	2	307	308	2	308	309	2	309	310	2	310	311	2	311	312	2	312	313	2	313	314	2	314	315	2	315	316	2	316	317	2	317	318	2	318	319	2	319	320	2	320	321	2	321	322	2	322	323	2	323	324	2	324	325	2	325	326	2	326	327	2	327	328	2	328	329	2	329	330	2	330	331	2	331	332	2	332	333	2	333	334	2	334	335	2	335	336	2	336	337	2	337	338	2	338	339	2	339	340	2	340	341	2	341	0	2	0	2	2	2	3	2	3	4	2	4	5	2	5	6	2	6	7	2	7	8	2	8	9	2	9	10	2	10	11	2	11	12	2	12	13	2	13	14	2	14	15	2	15	16	2	16	17	2	17	18	2	18	19	2	19	20	2	20	21	2	21	22	2	22	23	2	23	24	2	24	25	2	25	26	2	26	27	2	27	28	2	28	29	2	29	30	2	30	31	2	31	32	2	32	33	2	33	34	2	34	35	2	35	1	
CELL_TYPES 342
3	3	3	3	3	3	3	3	3	3	3	3	3	3	3	3	3	3	3	3	3	3	3	3	3	3	3	3	3	3	3	3	3	3	3	3	3	3	3	3	3	3	3	3	3	3	3	3	3	3	3	3	3	3	3	3	3	3	3	3	3	3	3	3	3	3	3	3	3	3	3	3	3	3	3	3	3	3	3	3	3	3	3	3	3	3	3	3	3	3	3	3	3	3	3	3	3	3	3	3	3	3	3	3	3	3	3	3	3	3	3	3	3	3	3	3	3	3	3	3	3	3	3	3	3	3	3	3	3	3	3	3	3	3	3	3	3	3	3	3	3	3	3	3	3	3	3	3	3	3	3	3	3	3	3	3	3	3	3	3	3	3	3	3	3	3	3	3	3	3	3	3	3	3	3	3	3	3	3	3	3	3	3	3	3	3	3	3	3	3	3	3	3	3	3	3	3	3	3	3	3	3	3	3	3	3	3	3	3	3	3	3	3	3	3	3	3	3	3	3	3	3	3	3	3	3	3	3	3	3	3	3	3	3	3	3	3	3	3	3	3	3	3	3	3	3	3	3	3	3	3	3	3	3	3	3	3	3	3	3	3	3	3	3	3	3	3	3	3	3	3	3	3	3	3	3	3	3	3	3	3	3	3	3	3	3	3	3	3	3	3	3	3	3	3	3	3	3	3	3	3	3	3	3	3	3	3	3	3	3	3	3	3	3	3	3	3	3	3	3	3	3	3	3	3	3	3	3	3	3	3	3	3	3	3	3	3	3	3	3	3	3	
POINT_DATA 342

SCALARS Density double 1
LOOKUP_TABLE default
4.193049e-01	1.501732e-01	3.838618e-01	3.562026e-01	3.330483e-01	3.150370e-01	2.994462e-01	2.855991e-01	2.635592e-01	2.493624e-01	2.267759e-01	2.138440e-01	1.904674e-01	1.702405e-01	1.461089e-01	1.327894e-01	1.207362e-01	1.083078e-01	9.112271e-02	7.028621e-02	5.667514e-02	4.241575e-02	3.394690e-02	2.430867e-02	1.806460e-02	1.170872e-02	7.027194e-03	4.618293e-03	3.128635e-03	1.768412e-03	1.177192e-03	8.681742e-04	5.052205e-04	1.608001e-04	8.029664e-04	8.859064e-03	2.608731e-01	2.710389e-01	3.197098e-01	3.728645e-01	4.280149e-01	4.630853e-01	4.847177e-01	4.991175e-01	5.125509e-01	5.223709e-01	5.397388e-01	5.458371e-01	5.458604e-01	5.567378e-01	5.672374e-01	5.772794e-01	5.974605e-01	6.081424e-01	6.078029e-01	6.175996e-01	6.250607e-01	6.287567e-01	6.329064e-01	6.376118e-01	6.465199e-01	6.560711e-01	6.645076e-01	6.676163e-01	6.745910e-01	6.791891e-01	6.843491e-01	6.908196e-01	6.966963e-01	7.027129e-01	7.039158e-01	7.044076e-01	7.073837e-01	7.102179e-01	7.158947e-01	7.207743e-01	7.277518e-01	7.343787e-01	7.372355e-01	7.400604e-01	7.428930e-01	7.421357e-01	7.442269e-01	7.468658e-01	7.498755e-01	7.533523e-01	7.562616e-01	7.592668e-01	7.625090e-01	7.656082e-01	7.681674e-01	7.705740e-01	7.734393e-01	7.779268e-01	7.819398e-01	7.865718e-01	7.871898e-01	7.887364e-01	7.914250e-01	7.953558e-01	8.015478e-01	8.076972e-01	8.132641e-01	8.144657e-01	8.172815e-01	8.206885e-01	8.245126e-01	8.292972e-01	8.323221e-01	8.344172e-01	8.369690e-01	8.422049e-01	8.440830e-01	8.458181e-01	8.495268e-01	8.564565e-01	8.678179e-01	8.749232e-01	8.781237e-01	8.836105e-01	8.891848e-01	8.946890e-01	9.032554e-01	9.105560e-01	9.167772e-01	9.195752e-01	9.244847e-01	9.279303e-01	9.364311e-01	9.478944e-01	9.582697e-01	9.685697e-01	9.772107e-01	9.865508e-01	9.929721e-01	1.001245e+00	1.009557e+00	1.018667e+00	1.021717e+00	1.031431e+00	1.044824e+00	1.070278e+00	1.087225e+00	1.101640e+00	1.113399e+00	1.115386e+00	1.108371e+00	1.097878e+00	1.159282e+00	1.215905e+00	1.221172e+00	1.229717e+00	1.238642e+00	1.257412e+00	1.275277e+00	1.307778e+00	1.349661e+00	1.402092e+00	1.446741e+00	1.481636e+00	1.523532e+00	1.585833e+00	1.664349e+00	1.741813e+00	1.840570e+00	1.950295e+00	2.109534e+00	2.286601e+00	2.616913e+00	3.249243e+00	4.174948e+00	4.740338e+00	5.393072e+00	6.026065e+00	5.740378e+00	4.920445e+00	4.817827e+00	4.434711e+00	3.613026e+00	3.107725e+00	2.800073e+00	2.615251e+00	2.296313e+00	2.251084e+00	2.017353e+00	1.949292e+00	1.674963e+00	1.601248e+00	1.666153e+00	1.603453e+00	1.476025e+00	1.488441e+00	1.430389e+00	1.374063e+00	1.339376e+00	1.337773e+00	1.285935e+00	1.310159e+00	1.269358e+00	1.213303e+00	1.196861e+00	1.182147e+00	1.148192e+00	1.154520e+00	1.126035e+00	1.120476e+00	1.101622e+00	1.091069e+00	1.078974e+00	1.069119e+00	1.067545e+00	1.060679e+00	1.057196e+00	1.047634e+00	1.019213e+00	1.027279e+00	1.018616e+00	9.890620e-01	9.949907e-01	9.716852e-01	9.820702e-01	9.697784e-01	9.559510e-01	9.577705e-01	9.563135e-01	9.511846e-01	9.426816e-01	9.363326e-01	9.302125e-01	9.238477e-01	9.159522e-01	9.104073e-01	9.060359e-01	9.019452e-01	8.968553e-01	8.936273e-01	8.914746e-01	8.887694e-01	8.861018e-01	8.827910e-01	8.807416e-01	8.840881e-01	8.857528e-01	8.775746e-01	8.735526e-01	8.696212e-01	8.631710e-01	8.642714e-01	8.608948e-01	8.506164e-01	8.445480e-01	8.461653e-01	8.459070e-01	8.441109e-01	8.405491e-01	8.382027e-01	8.360972e-01	8.347823e-01	8.330060e-01	8.316331e-01	8.307677e-01	8.289698e-01	8.261573e-01	8.233295e-01	8.209586e-01	8.180957e-01	8.172320e-01	8.107097e-01	8.056567e-01	8.011609e-01	7.921510e-01	7.883202e-01	7.864221e-01	7.826266e-01	7.781107e-01	7.763108e-01	7.766684e-01	7.781324e-01	7.772156e-01	7.742226e-01	7.727228e-01	7.709892e-01	7.702483e-01	7.717060e-01	7.684169e-01	7.644911e-01	7.600466e-01	7.563002e-01	7.531245e-01	7.500084e-01	7.458933e-01	7.426614e-01	7.398766e-01	7.369992e-01	7.332636e-01	7.302224e-01	7.276191e-01	7.245588e-01	7.200379e-01	7.165515e-01	7.139099e-01	7.118213e-01	7.118926e-01	7.073378e-01	7.025971e-01	7.046003e-01	7.030598e-01	6.951864e-01	6.874344e-01	6.850499e-01	6.803190e-01	6.745716e-01	6.756875e-01	6.799175e-01	6.835183e-01	6.844748e-01	6.830974e-01	6.763325e-01	6.650411e-01	6.476394e-01	6.367953e-01	6.383352e-01	6.354393e-01	6.291305e-01	6.285762e-01	6.276969e-01	6.260305e-01	6.234390e-01	6.180402e-01	6.161941e-01	6.188161e-01	6.155106e-01	6.024158e-01	5.925870e-01	5.916495e-01	5.927432e-01	5.976466e-01	5.965779e-01	5.876722e-01	5.813084e-01	5.850193e-01	5.392207e-01	
VECTORS Momentum double
6.186165e+02	-2.781043e+01	0.0	2.450486e+02	5.386770e+01	0.0	4.990470e+02	-3.536501e+00	0.0	4.660853e+02	-2.414352e+00	0.0	4.371844e+02	1.297042e+00	0.0	4.135419e+02	5.953449e+00	0.0	3.937296e+02	1.180329e+01	0.0	3.773814e+02	2.043188e+01	0.0	3.490914e+02	2.565586e+01	0.0	3.298517e+02	2.987964e+01	0.0	3.003004e+02	3.127573e+01	0.0	2.835362e+02	3.897851e+01	0.0	2.554736e+02	4.348066e+01	0.0	2.300166e+02	4.513745e+01	0.0	1.987460e+02	4.022256e+01	0.0	1.803872e+02	3.727825e+01	0.0	1.633547e+02	3.645754e+01	0.0	1.459688e+02	3.878233e+01	0.0	1.233189e+02	4.234075e+01	0.0	9.622006e+01	3.774427e+01	0.0	7.778492e+01	3.352479e+01	0.0	5.832151e+01	2.685564e+01	0.0	4.659948e+01	2.347861e+01	0.0	3.351253e+01	1.816332e+01	0.0	2.502313e+01	1.424669e+01	0.0	1.625615e+01	9.836930e+00	0.0	9.702330e+00	6.205817e+00	0.0	6.340645e+00	4.256977e+00	0.0	4.313538e+00	2.994419e+00	0.0	2.431682e+00	1.784123e+00	0.0	1.621005e+00	1.231868e+00	0.0	1.208086e+00	9.152695e-01	0.0	7.291758e-01	5.111159e-01	0.0	2.603371e-01	1.277160e-01	0.0	1.297242e+00	6.130197e-01	0.0	1.435094e+01	5.980507e+00	0.0	4.206222e+02	7.426919e+01	0.0	4.374704e+02	7.350725e+01	0.0	5.136111e+02	7.501447e+01	0.0	5.956723e+02	7.636611e+01	0.0	6.792239e+02	7.581331e+01	0.0	7.317169e+02	7.492466e+01	0.0	7.636486e+02	7.321959e+01	0.0	7.849389e+02	7.157892e+01	0.0	8.045341e+02	6.954806e+01	0.0	8.190237e+02	6.769905e+01	0.0	8.442538e+02	6.586035e+01	0.0	8.527544e+02	6.461815e+01	0.0	8.526864e+02	6.259614e+01	0.0	8.684535e+02	6.022498e+01	0.0	8.833955e+02	5.754015e+01	0.0	8.978935e+02	5.522619e+01	0.0	9.266622e+02	5.247159e+01	0.0	9.414028e+02	5.085632e+01	0.0	9.401929e+02	5.067026e+01	0.0	9.538836e+02	4.885766e+01	0.0	9.638569e+02	4.741024e+01	0.0	9.689241e+02	4.620323e+01	0.0	9.744461e+02	4.454583e+01	0.0	9.809741e+02	4.240168e+01	0.0	9.931533e+02	3.961146e+01	0.0	1.006388e+03	3.745427e+01	0.0	1.017752e+03	3.572536e+01	0.0	1.021452e+03	3.487019e+01	0.0	1.031003e+03	3.309387e+01	0.0	1.036947e+03	3.155318e+01	0.0	1.043933e+03	2.984724e+01	0.0	1.052492e+03	2.788839e+01	0.0	1.060375e+03	2.644690e+01	0.0	1.068128e+03	2.518508e+01	0.0	1.068981e+03	2.497918e+01	0.0	1.069134e+03	2.466003e+01	0.0	1.072525e+03	2.369717e+01	0.0	1.076168e+03	2.241445e+01	0.0	1.083538e+03	2.009442e+01	0.0	1.089701e+03	1.801368e+01	0.0	1.098953e+03	1.603011e+01	0.0	1.107388e+03	1.436940e+01	0.0	1.110523e+03	1.364804e+01	0.0	1.113816e+03	1.309262e+01	0.0	1.116538e+03	1.265810e+01	0.0	1.114331e+03	1.288598e+01	0.0	1.116570e+03	1.239266e+01	0.0	1.119047e+03	1.161599e+01	0.0	1.122616e+03	1.076598e+01	0.0	1.126323e+03	9.753947e+00	0.0	1.129867e+03	8.917394e+00	0.0	1.133129e+03	8.012855e+00	0.0	1.137015e+03	7.082859e+00	0.0	1.140156e+03	6.206533e+00	0.0	1.143121e+03	5.524749e+00	0.0	1.145373e+03	4.533239e+00	0.0	1.148804e+03	3.369490e+00	0.0	1.153992e+03	1.804485e+00	0.0	1.158708e+03	6.712306e-01	0.0	1.163595e+03	-3.517133e-01	0.0	1.163084e+03	-2.563434e-01	0.0	1.164643e+03	-7.492895e-01	0.0	1.167540e+03	-1.815269e+00	0.0	1.172333e+03	-3.502148e+00	0.0	1.179674e+03	-5.879187e+00	0.0	1.187081e+03	-7.796050e+00	0.0	1.193046e+03	-9.194829e+00	0.0	1.193089e+03	-9.291554e+00	0.0	1.196215e+03	-9.896752e+00	0.0	1.199690e+03	-1.085244e+01	0.0	1.204040e+03	-1.198297e+01	0.0	1.209063e+03	-1.340764e+01	0.0	1.212118e+03	-1.406868e+01	0.0	1.213010e+03	-1.437314e+01	0.0	1.215732e+03	-1.534648e+01	0.0	1.221465e+03	-1.732079e+01	0.0	1.222498e+03	-1.820187e+01	0.0	1.224178e+03	-1.919909e+01	0.0	1.227988e+03	-2.138519e+01	0.0	1.236235e+03	-2.485848e+01	0.0	1.249527e+03	-2.935972e+01	0.0	1.256657e+03	-3.145083e+01	0.0	1.259149e+03	-3.237086e+01	0.0	1.265238e+03	-3.399495e+01	0.0	1.270542e+03	-3.591968e+01	0.0	1.276648e+03	-3.820260e+01	0.0	1.285794e+03	-4.169201e+01	0.0	1.293818e+03	-4.400696e+01	0.0	1.299561e+03	-4.540364e+01	0.0	1.302027e+03	-4.643059e+01	0.0	1.306424e+03	-4.888896e+01	0.0	1.308873e+03	-5.148778e+01	0.0	1.318300e+03	-5.617867e+01	0.0	1.330447e+03	-6.197089e+01	0.0	1.341693e+03	-6.660758e+01	0.0	1.351660e+03	-7.085815e+01	0.0	1.360649e+03	-7.395230e+01	0.0	1.369161e+03	-7.750304e+01	0.0	1.375270e+03	-7.995723e+01	0.0	1.381946e+03	-8.302091e+01	0.0	1.390074e+03	-8.578217e+01	0.0	1.397577e+03	-8.846797e+01	0.0	1.399598e+03	-8.981646e+01	0.0	1.408016e+03	-9.504580e+01	0.0	1.421913e+03	-1.017955e+02	0.0	1.447815e+03	-1.133921e+02	0.0	1.463065e+03	-1.191352e+02	0.0	1.477126e+03	-1.221467e+02	0.0	1.486290e+03	-1.237206e+02	0.0	1.487042e+03	-1.235133e+02	0.0	1.476882e+03	-1.239567e+02	0.0	1.462228e+03	-1.317683e+02	0.0	1.523459e+03	-1.602973e+02	0.0	1.575945e+03	-1.794789e+02	0.0	1.579219e+03	-1.823175e+02	0.0	1.583149e+03	-1.877219e+02	0.0	1.589459e+03	-1.946429e+02	0.0	1.602366e+03	-2.071789e+02	0.0	1.616855e+03	-2.189562e+02	0.0	1.641171e+03	-2.391646e+02	0.0	1.675407e+03	-2.659703e+02	0.0	1.717220e+03	-2.969682e+02	0.0	1.745285e+03	-3.214417e+02	0.0	1.767616e+03	-3.417132e+02	0.0	1.789793e+03	-3.678655e+02	0.0	1.828103e+03	-4.164570e+02	0.0	1.879146e+03	-4.717689e+02	0.0	1.914395e+03	-5.213234e+02	0.0	1.955139e+03	-6.006795e+02	0.0	1.998600e+03	-6.818942e+02	0.0	2.047864e+03	-8.031226e+02	0.0	2.087760e+03	-9.397122e+02	0.0	2.127810e+03	-1.167543e+03	0.0	2.134713e+03	-1.426288e+03	0.0	1.954489e+03	-1.681480e+03	0.0	1.474529e+03	-1.651412e+03	0.0	8.748751e+02	-1.165171e+03	0.0	4.055484e+02	-4.545620e+02	0.0	9.018262e+02	7.164172e+02	0.0	1.371617e+03	1.301910e+03	0.0	2.049868e+03	1.521523e+03	0.0	2.304314e+03	1.674292e+03	0.0	2.654153e+03	1.601787e+03	0.0	2.617864e+03	1.232002e+03	0.0	2.535902e+03	1.075164e+03	0.0	2.485209e+03	9.820018e+02	0.0	2.322460e+03	8.398151e+02	0.0	2.354827e+03	8.388698e+02	0.0	2.199888e+03	7.369118e+02	0.0	2.183613e+03	6.729751e+02	0.0	1.982787e+03	4.870645e+02	0.0	1.922661e+03	4.291250e+02	0.0	2.003598e+03	4.674784e+02	0.0	1.964891e+03	4.175400e+02	0.0	1.849859e+03	3.428860e+02	0.0	1.871632e+03	3.464336e+02	0.0	1.825612e+03	3.117576e+02	0.0	1.776027e+03	2.733369e+02	0.0	1.744019e+03	2.463726e+02	0.0	1.744798e+03	2.404688e+02	0.0	1.691206e+03	2.209125e+02	0.0	1.729794e+03	2.356316e+02	0.0	1.694074e+03	2.155231e+02	0.0	1.637491e+03	1.842013e+02	0.0	1.621116e+03	1.705272e+02	0.0	1.607576e+03	1.540905e+02	0.0	1.569975e+03	1.378669e+02	0.0	1.581345e+03	1.334546e+02	0.0	1.549264e+03	1.225934e+02	0.0	1.548153e+03	1.192801e+02	0.0	1.528763e+03	1.094872e+02	0.0	1.517561e+03	1.035600e+02	0.0	1.504599e+03	9.704389e+01	0.0	1.493553e+03	9.258998e+01	0.0	1.492491e+03	9.158635e+01	0.0	1.485880e+03	8.997105e+01	0.0	1.482988e+03	9.075749e+01	0.0	1.476502e+03	8.856283e+01	0.0	1.442483e+03	7.953142e+01	0.0	1.454873e+03	8.340830e+01	0.0	1.449789e+03	8.031160e+01	0.0	1.413750e+03	7.043256e+01	0.0	1.423973e+03	7.121254e+01	0.0	1.395239e+03	6.493031e+01	0.0	1.414097e+03	6.801943e+01	0.0	1.401782e+03	6.284235e+01	0.0	1.385865e+03	5.691863e+01	0.0	1.390437e+03	5.511421e+01	0.0	1.392843e+03	5.469597e+01	0.0	1.388462e+03	5.331153e+01	0.0	1.380453e+03	4.988359e+01	0.0	1.373645e+03	4.691952e+01	0.0	1.367866e+03	4.411176e+01	0.0	1.360567e+03	4.145591e+01	0.0	1.352570e+03	3.812778e+01	0.0	1.346404e+03	3.535267e+01	0.0	1.342503e+03	3.299526e+01	0.0	1.337950e+03	3.094773e+01	0.0	1.333149e+03	2.843047e+01	0.0	1.329789e+03	2.640104e+01	0.0	1.328473e+03	2.474259e+01	0.0	1.325580e+03	2.329608e+01	0.0	1.324144e+03	2.200525e+01	0.0	1.320710e+03	2.058572e+01	0.0	1.319769e+03	1.924948e+01	0.0	1.325899e+03	1.942934e+01	0.0	1.330690e+03	2.016429e+01	0.0	1.320908e+03	1.792100e+01	0.0	1.316131e+03	1.629132e+01	0.0	1.312271e+03	1.453473e+01	0.0	1.304226e+03	1.221572e+01	0.0	1.306642e+03	1.109794e+01	0.0	1.303164e+03	9.608532e+00	0.0	1.289646e+03	6.347469e+00	0.0	1.281557e+03	4.010689e+00	0.0	1.284294e+03	2.694692e+00	0.0	1.285065e+03	2.038601e+00	0.0	1.283212e+03	1.339699e+00	0.0	1.279269e+03	-2.734434e-02	0.0	1.276489e+03	-1.188141e+00	0.0	1.274303e+03	-2.303618e+00	0.0	1.272833e+03	-3.117549e+00	0.0	1.271329e+03	-4.034028e+00	0.0	1.269885e+03	-4.836977e+00	0.0	1.269489e+03	-5.426945e+00	0.0	1.267360e+03	-6.081381e+00	0.0	1.264298e+03	-6.963479e+00	0.0	1.260773e+03	-7.890546e+00	0.0	1.258196e+03	-8.539170e+00	0.0	1.254559e+03	-9.266548e+00	0.0	1.254439e+03	-9.585019e+00	0.0	1.246099e+03	-1.118681e+01	0.0	1.239389e+03	-1.260928e+01	0.0	1.233665e+03	-1.406499e+01	0.0	1.221359e+03	-1.677234e+01	0.0	1.216120e+03	-1.870937e+01	0.0	1.214132e+03	-2.028616e+01	0.0	1.209058e+03	-2.202206e+01	0.0	1.203076e+03	-2.415777e+01	0.0	1.200695e+03	-2.561124e+01	0.0	1.201565e+03	-2.646727e+01	0.0	1.203863e+03	-2.692719e+01	0.0	1.203087e+03	-2.737950e+01	0.0	1.199097e+03	-2.813388e+01	0.0	1.197397e+03	-2.884694e+01	0.0	1.195314e+03	-2.960392e+01	0.0	1.194477e+03	-3.000238e+01	0.0	1.197104e+03	-2.957649e+01	0.0	1.192976e+03	-2.999282e+01	0.0	1.187682e+03	-3.062424e+01	0.0	1.181840e+03	-3.156632e+01	0.0	1.176717e+03	-3.250316e+01	0.0	1.172561e+03	-3.338331e+01	0.0	1.168266e+03	-3.422409e+01	0.0	1.162766e+03	-3.525944e+01	0.0	1.158306e+03	-3.623959e+01	0.0	1.154637e+03	-3.712370e+01	0.0	1.150639e+03	-3.797669e+01	0.0	1.145641e+03	-3.899797e+01	0.0	1.141425e+03	-3.995279e+01	0.0	1.138060e+03	-4.088526e+01	0.0	1.133807e+03	-4.175272e+01	0.0	1.127591e+03	-4.285938e+01	0.0	1.122680e+03	-4.389764e+01	0.0	1.119113e+03	-4.473202e+01	0.0	1.116194e+03	-4.544676e+01	0.0	1.116804e+03	-4.578860e+01	0.0	1.110564e+03	-4.677940e+01	0.0	1.103818e+03	-4.789038e+01	0.0	1.107073e+03	-4.809875e+01	0.0	1.105222e+03	-4.865887e+01	0.0	1.093915e+03	-5.008253e+01	0.0	1.082663e+03	-5.132694e+01	0.0	1.079418e+03	-5.200447e+01	0.0	1.072812e+03	-5.291965e+01	0.0	1.064500e+03	-5.473673e+01	0.0	1.066115e+03	-5.614807e+01	0.0	1.072429e+03	-5.715416e+01	0.0	1.077842e+03	-5.774607e+01	0.0	1.079343e+03	-5.800981e+01	0.0	1.077717e+03	-5.806896e+01	0.0	1.067955e+03	-5.841227e+01	0.0	1.051644e+03	-5.927545e+01	0.0	1.026134e+03	-6.140277e+01	0.0	1.010093e+03	-6.304625e+01	0.0	1.012539e+03	-6.374599e+01	0.0	1.008478e+03	-6.440159e+01	0.0	9.992323e+02	-6.591107e+01	0.0	9.983920e+02	-6.713632e+01	0.0	9.972809e+02	-6.789081e+01	0.0	9.948719e+02	-6.851904e+01	0.0	9.911492e+02	-6.945012e+01	0.0	9.831449e+02	-7.079524e+01	0.0	9.803737e+02	-7.171778e+01	0.0	9.843638e+02	-7.222460e+01	0.0	9.796149e+02	-7.261807e+01	0.0	9.601510e+02	-7.326363e+01	0.0	9.454546e+02	-7.386689e+01	0.0	9.442642e+02	-7.454993e+01	0.0	9.460309e+02	-7.578008e+01	0.0	9.533821e+02	-7.671656e+01	0.0	9.518832e+02	-7.721506e+01	0.0	9.385998e+02	-7.790156e+01	0.0	9.290032e+02	-7.897099e+01	0.0	9.346418e+02	-7.957835e+01	0.0	8.658450e+02	-7.727174e+01	0.0	
SCALARS Energy double 1
LOOKUP_TABLE default