# vtk DataFile Version 3.0
vtk output
ASCII
DATASET UNSTRUCTURED_GRID
POINTS 15671 double
8.250000e-01	2.490000e-02	0.0	6.750000e-01	-2.870000e-02	0.0	8.250000e-01	2.410000e-02	0.0	1.078890e+00	-1.341520e-01	0.0	1.073600e+00	-1.423860e-01	0.0	3.000000e+01	0.000000e+00	0.0	0.000000e+00	3.000000e+01	0.0	-3.000000e+01	0.000000e+00	0.0	0.000000e+00	-3.000000e+01	0.0	8.225136e-01	2.515232e-02	0.0	8.200260e-01	2.539252e-02	0.0	8.175378e-01	2.562525e-02	0.0	8.150494e-01	2.585730e-02	0.0	8.125613e-01	2.609165e-02	0.0	8.100736e-01	2.633135e-02	0.0	8.075861e-01	2.657236e-02	0.0	8.050983e-01	2.680983e-02	0.0	8.026098e-01	2.704006e-02	0.0	8.001202e-01	2.725873e-02	0.0	7.976299e-01	2.746874e-02	0.0	7.951395e-01	2.767761e-02	0.0	7.926495e-01	2.789148e-02	0.0	7.901604e-01	2.811515e-02	0.0	7.876726e-01	2.835330e-02	0.0	7.851860e-01	2.860319e-02	0.0	7.826998e-01	2.885676e-02	0.0	7.802132e-01	2.910705e-02	0.0	7.777258e-01	2.934887e-02	0.0	7.752372e-01	2.957879e-02	0.0	7.727477e-01	2.979747e-02	0.0	7.702575e-01	3.000941e-02	0.0	7.677670e-01	3.021649e-02	0.0	7.652761e-01	3.042027e-02	0.0	7.627851e-01	3.062199e-02	0.0	7.602941e-01	3.082274e-02	0.0	7.578030e-01	3.102339e-02	0.0	7.553119e-01	3.122471e-02	0.0	7.528212e-01	3.142976e-02	0.0	7.503311e-01	3.164143e-02	0.0	7.478411e-01	3.185610e-02	0.0	7.453511e-01	3.206905e-02	0.0	7.428606e-01	3.227672e-02	0.0	7.403695e-01	3.247765e-02	0.0	7.378779e-01	3.267186e-02	0.0	7.353859e-01	3.286004e-02	0.0	7.328934e-01	3.304304e-02	0.0	7.304007e-01	3.322165e-02	0.0	7.279077e-01	3.339668e-02	0.0	7.254145e-01	3.356925e-02	0.0	7.229212e-01	3.374009e-02	0.0	7.204278e-01	3.390963e-02	0.0	7.179343e-01	3.407814e-02	0.0	7.154408e-01	3.424580e-02	0.0	7.129472e-01	3.441275e-02	0.0	7.104536e-01	3.457908e-02	0.0	7.079600e-01	3.474488e-02	0.0	7.054663e-01	3.491018e-02	0.0	7.029726e-01	3.507505e-02	0.0	7.004789e-01	3.523952e-02	0.0	6.979851e-01	3.540361e-02	0.0	6.954913e-01	3.556734e-02	0.0	6.929975e-01	3.573075e-02	0.0	6.905037e-01	3.589382e-02	0.0	6.880099e-01	3.605658e-02	0.0	6.855160e-01	3.621902e-02	0.0	6.830221e-01	3.638113e-02	0.0	6.805282e-01	3.654289e-02	0.0	6.780343e-01	3.670427e-02	0.0	6.755403e-01	3.686520e-02	0.0	6.730464e-01	3.702597e-02	0.0	6.705524e-01	3.718730e-02	0.0	6.680585e-01	3.734890e-02	0.0	6.655645e-01	3.750979e-02	0.0	6.630704e-01	3.766751e-02	0.0	6.605758e-01	3.781852e-02	0.0	6.580808e-01	3.796176e-02	0.0	6.555854e-01	3.809962e-02	0.0	6.530899e-01	3.823465e-02	0.0	6.505943e-01	3.836829e-02	0.0	6.480987e-01	3.850119e-02	0.0	6.456031e-01	3.863339e-02	0.0	6.431074e-01	3.876490e-02	0.0	6.406117e-01	3.889573e-02	0.0	6.381159e-01	3.902586e-02	0.0	6.356201e-01	3.915530e-02	0.0	6.331243e-01	3.928401e-02	0.0	6.306284e-01	3.941197e-02	0.0	6.281325e-01	3.953916e-02	0.0	6.256365e-01	3.966553e-02	0.0	6.231406e-01	3.979105e-02	0.0	6.206445e-01	3.991565e-02	0.0	6.181484e-01	4.003928e-02	0.0	6.156523e-01	4.016186e-02	0.0	6.131561e-01	4.028332e-02	0.0	6.106598e-01	4.040356e-02	0.0	6.081635e-01	4.052246e-02	0.0	6.056671e-01	4.063988e-02	0.0	6.031707e-01	4.075566e-02	0.0	6.006741e-01	4.086959e-02	0.0	5.981775e-01	4.098194e-02	0.0	5.956808e-01	4.109386e-02	0.0	5.931842e-01	4.120528e-02	0.0	5.906875e-01	4.131604e-02	0.0	5.881908e-01	4.142599e-02	0.0	5.856940e-01	4.153499e-02	0.0	5.831972e-01	4.164289e-02	0.0	5.807003e-01	4.174954e-02	0.0	5.782034e-01	4.185478e-02	0.0	5.757064e-01	4.195847e-02	0.0	5.732093e-01	4.206046e-02	0.0	5.707122e-01	4.216060e-02	0.0	5.682149e-01	4.225874e-02	0.0	5.657176e-01	4.235473e-02	0.0	5.632202e-01	4.244843e-02	0.0	5.607228e-01	4.253967e-02	0.0	5.582252e-01	4.262832e-02	0.0	5.557275e-01	4.271422e-02	0.0	5.532297e-01	4.279722e-02	0.0	5.507319e-01	4.287717e-02	0.0	5.482339e-01	4.295335e-02	0.0	5.457357e-01	4.302426e-02	0.0	5.432375e-01	4.309033e-02	0.0	5.407391e-01	4.315208e-02	0.0	5.382406e-01	4.321004e-02	0.0	5.357421e-01	4.326471e-02	0.0	5.332434e-01	4.331664e-02	0.0	5.307448e-01	4.336634e-02	0.0	5.282461e-01	4.341433e-02	0.0	5.257474e-01	4.346115e-02	0.0	5.232487e-01	4.350731e-02	0.0	5.207499e-01	4.355333e-02	0.0	5.182512e-01	4.359975e-02	0.0	5.157525e-01	4.364709e-02	0.0	5.132539e-01	4.369586e-02	0.0	5.107552e-01	4.374660e-02	0.0	5.082566e-01	4.379982e-02	0.0	5.057581e-01	4.385606e-02	0.0	5.032597e-01	4.391583e-02	0.0	5.007614e-01	4.397966e-02	0.0	4.982631e-01	4.404807e-02	0.0	4.957651e-01	4.412106e-02	0.0	4.932671e-01	4.419809e-02	0.0	4.907692e-01	4.427859e-02	0.0	4.882715e-01	4.436201e-02	0.0	4.857738e-01	4.444779e-02	0.0	4.832762e-01	4.453535e-02	0.0	4.807786e-01	4.462415e-02	0.0	4.782811e-01	4.471362e-02	0.0	4.757835e-01	4.480321e-02	0.0	4.732860e-01	4.489235e-02	0.0	4.707884e-01	4.498048e-02	0.0	4.682907e-01	4.506704e-02	0.0	4.657930e-01	4.515148e-02	0.0	4.632952e-01	4.523322e-02	0.0	4.607973e-01	4.531172e-02	0.0	4.582993e-01	4.538641e-02	0.0	4.558011e-01	4.545672e-02	0.0	4.533028e-01	4.552210e-02	0.0	4.508044e-01	4.558198e-02	0.0	4.483058e-01	4.563631e-02	0.0	4.458072e-01	4.568647e-02	0.0	4.433085e-01	4.573283e-02	0.0	4.408097e-01	4.577564e-02	0.0	4.383108e-01	4.581518e-02	0.0	4.358120e-01	4.585169e-02	0.0	4.333130e-01	4.588545e-02	0.0	4.308141e-01	4.591671e-02	0.0	4.283151e-01	4.594574e-02	0.0	4.258161e-01	4.597280e-02	0.0	4.233171e-01	4.599815e-02	0.0	4.208180e-01	4.602205e-02	0.0	4.183190e-01	4.604476e-02	0.0	4.158199e-01	4.606656e-02	0.0	4.133209e-01	4.608769e-02	0.0	4.108218e-01	4.610842e-02	0.0	4.083228e-01	4.612902e-02	0.0	4.058237e-01	4.614975e-02	0.0	4.033246e-01	4.617086e-02	0.0	4.008256e-01	4.619262e-02	0.0	3.983265e-01	4.621500e-02	0.0	3.958275e-01	4.623715e-02	0.0	3.933284e-01	4.625892e-02	0.0	3.908294e-01	4.628024e-02	0.0	3.883303e-01	4.630103e-02	0.0	3.858312e-01	4.632123e-02	0.0	3.833322e-01	4.634075e-02	0.0	3.808331e-01	4.635952e-02	0.0	3.783340e-01	4.637747e-02	0.0	3.758349e-01	4.639452e-02	0.0	3.733358e-01	4.641059e-02	0.0	3.708367e-01	4.642562e-02	0.0	3.683376e-01	4.643952e-02	0.0	3.658385e-01	4.645222e-02	0.0	3.633394e-01	4.646365e-02	0.0	3.608402e-01	4.647373e-02	0.0	3.583411e-01	4.648238e-02	0.0	3.558420e-01	4.648954e-02	0.0	3.533428e-01	4.649512e-02	0.0	3.508437e-01	4.649906e-02	0.0	3.483445e-01	4.650138e-02	0.0	3.458454e-01	4.650243e-02	0.0	3.433462e-01	4.650223e-02	0.0	3.408471e-01	4.650078e-02	0.0	3.383479e-01	4.649808e-02	0.0	3.358488e-01	4.649413e-02	0.0	3.333496e-01	4.648893e-02	0.0	3.308505e-01	4.648248e-02	0.0	3.283514e-01	4.647478e-02	0.0	3.258522e-01	4.646584e-02	0.0	3.233531e-01	4.645564e-02	0.0	3.208540e-01	4.644420e-02	0.0	3.183549e-01	4.643150e-02	0.0	3.158558e-01	4.641756e-02	0.0	3.133567e-01	4.640237e-02	0.0	3.108576e-01	4.638593e-02	0.0	3.083585e-01	4.636824e-02	0.0	3.058594e-01	4.634930e-02	0.0	3.033603e-01	4.632911e-02	0.0	3.008613e-01	4.630768e-02	0.0	2.983622e-01	4.628515e-02	0.0	2.958632e-01	4.626200e-02	0.0	2.933641e-01	4.623817e-02	0.0	2.908651e-01	4.621353e-02	0.0	2.883661e-01	4.618799e-02	0.0	2.858671e-01	4.616143e-02	0.0	2.833681e-01	4.613373e-02	0.0	2.808691e-01	4.610478e-02	0.0	2.783702e-01	4.607447e-02	0.0	2.758712e-01	4.604270e-02	0.0	2.733723e-01	4.600933e-02	0.0	2.708734e-01	4.597427e-02	0.0	2.683745e-01	4.593741e-02	0.0	2.658757e-01	4.589862e-02	0.0	2.633768e-01	4.585780e-02	0.0	2.608781e-01	4.581483e-02	0.0	2.583793e-01	4.576960e-02	0.0	2.558806e-01	4.572201e-02	0.0	2.533820e-01	4.567193e-02	0.0	2.508834e-01	4.561926e-02	0.0	2.483848e-01	4.556415e-02	0.0	2.458863e-01	4.550741e-02	0.0	2.433879e-01	4.544906e-02	0.0	2.408894e-01	4.538900e-02	0.0	2.383911e-01	4.532718e-02	0.0	2.358927e-01	4.526351e-02	0.0	2.333944e-01	4.519793e-02	0.0	2.308962e-01	4.513034e-02	0.0	2.283980e-01	4.506069e-02	0.0	2.258999e-01	4.498890e-02	0.0	2.234018e-01	4.491489e-02	0.0	2.209039e-01	4.483859e-02	0.0	2.184060e-01	4.475992e-02	0.0	2.159081e-01	4.467881e-02	0.0	2.134104e-01	4.459518e-02	0.0	2.109127e-01	4.450897e-02	0.0	2.084151e-01	4.442009e-02	0.0	2.059177e-01	4.432847e-02	0.0	2.034203e-01	4.423404e-02	0.0	2.009231e-01	4.413672e-02	0.0	1.984259e-01	4.403650e-02	0.0	1.959289e-01	4.393359e-02	0.0	1.934320e-01	4.382811e-02	0.0	1.909352e-01	4.372013e-02	0.0	1.884384e-01	4.360972e-02	0.0	1.859418e-01	4.349693e-02	0.0	1.834453e-01	4.338178e-02	0.0	1.809490e-01	4.326430e-02	0.0	1.784527e-01	4.314449e-02	0.0	1.759565e-01	4.302235e-02	0.0	1.734605e-01	4.289786e-02	0.0	1.709646e-01	4.277100e-02	0.0	1.684688e-01	4.264170e-02	0.0	1.659731e-01	4.250992e-02	0.0	1.634775e-01	4.237557e-02	0.0	1.609822e-01	4.223856e-02	0.0	1.584869e-01	4.209876e-02	0.0	1.559918e-01	4.195602e-02	0.0	1.534970e-01	4.181016e-02	0.0	1.510023e-01	4.166095e-02	0.0	1.485078e-01	4.150830e-02	0.0	1.460135e-01	4.135261e-02	0.0	1.435194e-01	4.119369e-02	0.0	1.410255e-01	4.103126e-02	0.0	1.385319e-01	4.086503e-02	0.0	1.360386e-01	4.069471e-02	0.0	1.335456e-01	4.052000e-02	0.0	1.310529e-01	4.034059e-02	0.0	1.285605e-01	4.015619e-02	0.0	1.260686e-01	3.996653e-02	0.0	1.235771e-01	3.977132e-02	0.0	1.210860e-01	3.957032e-02	0.0	1.185954e-01	3.936331e-02	0.0	1.161054e-01	3.915010e-02	0.0	1.136159e-01	3.893054e-02	0.0	1.111270e-01	3.870451e-02	0.0	1.086387e-01	3.847177e-02	0.0	1.061512e-01	3.823146e-02	0.0	1.036643e-01	3.798369e-02	0.0	1.011782e-01	3.772865e-02	0.0	9.869287e-02	3.746648e-02	0.0	9.620827e-02	3.719729e-02	0.0	9.372442e-02	3.692112e-02	0.0	9.124137e-02	3.663798e-02	0.0	8.875912e-02	3.634781e-02	0.0	8.627772e-02	3.605050e-02	0.0	8.379721e-02	3.574585e-02	0.0	8.131765e-02	3.543360e-02	0.0	7.883910e-02	3.511337e-02	0.0	7.636167e-02	3.478463e-02	0.0	7.388555e-02	3.444616e-02	0.0	7.141141e-02	3.409353e-02	0.0	6.893949e-02	3.372563e-02	0.0	6.646993e-02	3.334223e-02	0.0	6.400283e-02	3.294327e-02	0.0	6.153828e-02	3.252889e-02	0.0	5.907630e-02	3.209950e-02	0.0	5.661685e-02	3.165585e-02	0.0	5.415979e-02	3.119911e-02	0.0	5.170489e-02	3.073094e-02	0.0	4.925167e-02	3.025400e-02	0.0	4.679885e-02	2.977507e-02	0.0	4.434779e-02	2.928717e-02	0.0	4.190165e-02	2.877527e-02	0.0	3.946461e-02	2.822178e-02	0.0	3.704086e-02	2.761278e-02	0.0	3.463303e-02	2.694363e-02	0.0	3.224134e-02	2.621885e-02	0.0	2.986710e-02	2.543878e-02	0.0	2.750733e-02	2.461591e-02	0.0	2.515848e-02	2.376234e-02	0.0	2.281
[...]
POINT_DATA 15671

SCALARS Density double 1
LOOKUP_TABLE default
1.167537e+00	1.209552e+00	1.177633e+00	1.184915e+00	1.190244e+00	1.224604e+00	1.224743e+00	1.225032e+00	1.225213e+00	1.201626e+00	1.200570e+00	1.200706e+00	1.200678e+00	1.200520e+00	1.200236e+00	1.200089e+00	1.200155e+00	1.200543e+00	1.201241e+00	1.201853e+00	1.202230e+00	1.202485e+00	1.202055e+00	1.201571e+00	1.201064e+00	1.200767e+00	1.200666e+00	1.200819e+00	1.201197e+00	1.201586e+00	1.201860e+00	1.202123e+00	1.202370e+00	1.202606e+00	1.202811e+00	1.202977e+00	1.203099e+00	1.202940e+00	1.202660e+00	1.202463e+00	1.202413e+00	1.202510e+00	1.202690e+00	1.202884e+00	1.203084e+00	1.203280e+00	1.203467e+00	1.203658e+00	1.203828e+00	1.203971e+00	1.204084e+00	1.204208e+00	1.204317e+00	1.204423e+00	1.204507e+00	1.204571e+00	1.204653e+00	1.204737e+00	1.204820e+00	1.204875e+00	1.204933e+00	1.204984e+00	1.205007e+00	1.205060e+00	1.205097e+00	1.205137e+00	1.205179e+00	1.205215e+00	1.205236e+00	1.205221e+00	1.205127e+00	1.205004e+00	1.204912e+00	1.204967e+00	1.205179e+00	1.205427e+00	1.205637e+00	1.205777e+00	1.205840e+00	1.205908e+00	1.205977e+00	1.206019e+00	1.206057e+00	1.206114e+00	1.206165e+00	1.206203e+00	1.206260e+00	1.206314e+00	1.206330e+00	1.206374e+00	1.206386e+00	1.206435e+00	1.206449e+00	1.206465e+00	1.206506e+00	1.206547e+00	1.206598e+00	1.206638e+00	1.206708e+00	1.206776e+00	1.206787e+00	1.206812e+00	1.206817e+00	1.206820e+00	1.206837e+00	1.206854e+00	1.206866e+00	1.206895e+00	1.206907e+00	1.206923e+00	1.206931e+00	1.206952e+00	1.206963e+00	1.206963e+00	1.206978e+00	1.207036e+00	1.207072e+00	1.207086e+00	1.207138e+00	1.207220e+00	1.207358e+00	1.207488e+00	1.207626e+00	1.207777e+00	1.207907e+00	1.208065e+00	1.208238e+00	1.208395e+00	1.208515e+00	1.208667e+00	1.208798e+00	1.208884e+00	1.208998e+00	1.209099e+00	1.209222e+00	1.209260e+00	1.209312e+00	1.209309e+00	1.209291e+00	1.209214e+00	1.209162e+00	1.209051e+00	1.208959e+00	1.208859e+00	1.208767e+00	1.208657e+00	1.208569e+00	1.208457e+00	1.208370e+00	1.208273e+00	1.208184e+00	1.208088e+00	1.208008e+00	1.207946e+00	1.207914e+00	1.207891e+00	1.207881e+00	1.207922e+00	1.208008e+00	1.208091e+00	1.208152e+00	1.208226e+00	1.208290e+00	1.208353e+00	1.208429e+00	1.208516e+00	1.208592e+00	1.208670e+00	1.208742e+00	1.208791e+00	1.208861e+00	1.208930e+00	1.208995e+00	1.209036e+00	1.209092e+00	1.209120e+00	1.209133e+00	1.209138e+00	1.209127e+00	1.209105e+00	1.209099e+00	1.209114e+00	1.209116e+00	1.209131e+00	1.209129e+00	1.209118e+00	1.209112e+00	1.209071e+00	1.209073e+00	1.209062e+00	1.209049e+00	1.209061e+00	1.209054e+00	1.209058e+00	1.209059e+00	1.209060e+00	1.209081e+00	1.209089e+00	1.209118e+00	1.209124e+00	1.209139e+00	1.209143e+00	1.209163e+00	1.209164e+00	1.209182e+00	1.209178e+00	1.209171e+00	1.209191e+00	1.209203e+00	1.209185e+00	1.209178e+00	1.209202e+00	1.209208e+00	1.209220e+00	1.209217e+00	1.209236e+00	1.209240e+00	1.209265e+00	1.209283e+00	1.209248e+00	1.209238e+00	1.209198e+00	1.209188e+00	1.209162e+00	1.209157e+00	1.209128e+00	1.209125e+00	1.209090e+00	1.209082e+00	1.209045e+00	1.209031e+00	1.209005e+00	1.209001e+00	1.208973e+00	1.208976e+00	1.208940e+00	1.208925e+00	1.208946e+00	1.208975e+00	1.208964e+00	1.208965e+00	1.208951e+00	1.208957e+00	1.208945e+00	1.208918e+00	1.208894e+00	1.208904e+00	1.208899e+00	1.208833e+00	1.208787e+00	1.208789e+00	1.208775e+00	1.208742e+00	1.208780e+00	1.208778e+00	1.208716e+00	1.208689e+00	1.208657e+00	1.208679e+00	1.208662e+00	1.208679e+00	1.208655e+00	1.208654e+00	1.208632e+00	1.208613e+00	1.208577e+00	1.208581e+00	1.208550e+00	1.208574e+00	1.208602e+00	1.208526e+00	1.208471e+00	1.208464e+00	1.208346e+00	1.208251e+00	1.208199e+00	1.208153e+00	1.208088e+00	1.208049e+00	1.208010e+00	1.207927e+00	1.207890e+00	1.207814e+00	1.207796e+00	1.207709e+00	1.207671e+00	1.207549e+00	1.207496e+00	1.207401e+00	1.207362e+00	1.207296e+00	1.207243e+00	1.207280e+00	1.207290e+00	1.207229e+00	1.207086e+00	1.206956e+00	1.207016e+00	1.207011e+00	1.206986e+00	1.206947e+00	1.206791e+00	1.206742e+00	1.206696e+00	1.206652e+00	1.206532e+00	1.206254e+00	1.205989e+00	1.205869e+00	1.205748e+00	1.205737e+00	1.205944e+00	1.206008e+00	1.206139e+00	1.206096e+00	1.206089e+00	1.206253e+00	1.206276e+00	1.206245e+00	1.205554e+00	1.204500e+00	1.203904e+00	1.203665e+00	1.203668e+00	1.204016e+00	1.204773e+00	1.206269e+00	1.207397e+00	1.208178e+00	1.208610e+00	1.208818e+00	1.208136e+00	1.207434e+00	1.205931e+00	1.203294e+00	1.202678e+00	1.214287e+00	1.221189e+00	1.224949e+00	1.235506e+00	1.241751e+00	1.248900e+00	1.253841e+00	1.257687e+00	1.258151e+00	1.259504e+00	1.261383e+00	1.259432e+00	1.256435e+00	1.250190e+00	1.240663e+00	1.233995e+00	1.230182e+00	1.226425e+00	1.223831e+00	1.221635e+00	1.219671e+00	1.219188e+00	1.219360e+00	1.219073e+00	1.218643e+00	1.218260e+00	1.217797e+00	1.217817e+00	1.217728e+00	1.217717e+00	1.217611e+00	1.217407e+00	1.217375e+00	1.217367e+00	1.217457e+00	1.217601e+00	1.217762e+00	1.217822e+00	1.217716e+00	1.217616e+00	1.217555e+00	1.217461e+00	1.217500e+00	1.217434e+00	1.217534e+00	1.217675e+00	1.217754e+00	1.217858e+00	1.217917e+00	1.218033e+00	1.218100e+00	1.218169e+00	1.218170e+00	1.218231e+00	1.218271e+00	1.218301e+00	1.218354e+00	1.218347e+00	1.218396e+00	1.218458e+00	1.218557e+00	1.218629e+00	1.218713e+00	1.218771e+00	1.218824e+00	1.218887e+00	1.218998e+00	1.219061e+00	1.219150e+00	1.219231e+00	1.219332e+00	1.219392e+00	1.219496e+00	1.219577e+00	1.219719e+00	1.219785e+00	1.219834e+00	1.219924e+00	1.219968e+00	1.220064e+00	1.220122e+00	1.220197e+00	1.220233e+00	1.220314e+00	1.220400e+00	1.220437e+00	1.220509e+00	1.220558e+00	1.220628e+00	1.220662e+00	1.220721e+00	1.220769e+00	1.220836e+00	1.220871e+00	1.220926e+00	1.220972e+00	1.221017e+00	1.221062e+00	1.221111e+00	1.221140e+00	1.221190e+00	1.221237e+00	1.221296e+00	1.221359e+00	1.221411e+00	1.221484e+00	1.221541e+00	1.221596e+00	1.221642e+00	1.221703e+00	1.221749e+00	1.221806e+00	1.221882e+00	1.221956e+00	1.221995e+00	1.222012e+00	1.222055e+00	1.222095e+00	1.222144e+00	1.222188e+00	1.222251e+00	1.222316e+00	1.222393e+00	1.222452e+00	1.222494e+00	1.222554e+00	1.222604e+00	1.222667e+00	1.222716e+00	1.222779e+00	1.222835e+00	1.222906e+00	1.222952e+00	1.223019e+00	1.223096e+00	1.223100e+00	1.223179e+00	1.223228e+00	1.223266e+00	1.223325e+00	1.223373e+00	1.223409e+00	1.223459e+00	1.223509e+00	1.223541e+00	1.223580e+00	1.223618e+00	1.223666e+00	1.223704e+00	1.223747e+00	1.223816e+00	1.223869e+00	1.223904e+00	1.223951e+00	1.223994e+00	1.224020e+00	1.224067e+00	1.224109e+00	1.224161e+00	1.224204e+00	1.224251e+00	1.224299e+00	1.224355e+00	1.224393e+00	1.224442e+00	1.224489e+00	1.224536e+00	1.224577e+00	1.224633e+00	1.224677e+00	1.224729e+00	1.224801e+00	1.224850e+00	1.224883e+00	1.224934e+00	1.224977e+00	1.225025e+00	1.225064e+00	1.225099e+00	1.225136e+00	1.225179e+00	1.225221e+00	1.225250e+00	1.225297e+00	1.225338e+00	1.225374e+00	1.225413e+00	1.225450e+00	1.225494e+00	1.225538e+00	1.225582e+00	1.225634e+00	1.225679e+00	1.225715e+00	1.225771e+00	1.225828e+00	1.225877e+00	1.225916e+00	1.225946e+00	1.226007e+00	1.226048e+00	1.226075e+00	1.226090e+00	1.226129e+00	1.226167e+00	1.226202e+00	1.226243e+00	1.226279e+00	1.226318e+00	1.226350e+00	1.226384e+00	1.226413e+00	1.226442e+00	1.226476e+00	1.226538e+00	1.226614e+00	1.226674e+00	1.226733e+00	1.226774e+00	1.226818e+00	1.226844e+00	1.226863e+00	1.226895e+00	1.226920e+00	1.226942e+00	1.226975e+00	1.227000e+00	1.227037e+00	1.227088e+00	1.227121e+00	1.227154e+00	1.227186e+00	1.227228e+00	1.227255e+00	1.227346e+00	1.227450e+00	1.227542e+00	1.227608e+00	1.227662e+00	1.227710e+00	1.227764e+00	1.227805e+00	1.227849e+00	1.227861e+00	1.227885e+00	1.227915e+00	1.227986e+00	1.228010e+00	1.228059e+00	1.228109e+00	1.228140e+00	1.228199e+00	1.228211e+00	1.228309e+00	1.228391e+00	1.228415e+00	1.228480e+00	1.228615e+00	1.228784e+00	1.228901e+00	1.229043e+00	1.229171e+00	1.229297e+00	1.229461e+00	1.229563e+00	1.229690e+00	1.229854e+00	1.229997e+00	1.230193e+00	1.230267e+00	1.230439e+00	1.230602e+00	1.230731e+00	1.230914e+00	1.231001e+00	1.230921e+00	1.230862e+00	1.230811e+00	1.230821e+00	1.231147e+00	1.231626e+00	1.232105e+00	1.232854e+00	1.235107e+00	1.193253e+00	1.204574e+00	1.208263e+00	1.210704e+00	1.212353e+00	1.212785e+00	1.212781e+00	1.213192e+00	1.213579e+00	1.214043e+00	1.214259e+00	1.214685e+00	1.214939e+00	1.215098e+00	1.215305e+00	1.215399e+00	1.215629e+00	1.216042e+00	1.216384e+00	1.216833e+00	1.217175e+00	1.217295e+00	1.217475e+00	1.217574e+00	1.217894e+00	1.218227e+00	1.218442e+00	1.218678e+00	1.218948e+00	1.219199e+00	1.219304e+00	1.219397e+00	1.219741e+00	1.219858e+00	1.219980e+00	1.220176e+00	1.220328e+00	1.220571e+00	1.220815e+00	1.220947e+00	1.221093e+00	1.221303e+00	1.221402e+00	1.221526e+00	1.221771e+00	1.221780e+00	1.221873e+00	1.222286e+00	1.222402e+00	1.222687e+00	1.222905e+00	1.223051e+00	1.223256e+00	1.223653e+00	1.223994e+00	1.223964e+00	1.224257e+00	1.224449e+00	1.224385e+00	1.224418e+00	1.224641e+00	1.224322e+00	1.224244e+00	1.225384e+00	1.223736e+00	1.222343e+00	1.220791e+00	1.218884e+00	1.216083e+00	1.214325e+00	1.224673e+00	1.224729e+00	1.224752e+00	1.224766e+00	1.224767e+00	1.224767e+00	1.224769e+00	1.224765e+00	1.224761e+00	1.224759e+00	1.224754e+00	1.224753e+00	1.224747e+00	1.224747e+00	1.224745e+00	1.224755e+00	1.224767e+00	1.224782e+00	1.224795e+00	1.224810e+00	1.224834e+00	1.224850e+00	1.224869e+00	1.224891e+00	1.224914e+00	1.224934e+00	1.224951e+00	1.224971e+00	1.224991e+00	1.225013e+00	1.225052e+00	1.225073e+00	1.225090e+00	1.225105e+00	1.225125e+00	1.225142e+00	1.225159e+00	1.225173e+00	1.225182e+00	1.225194e+00	1.225206e+00	1.225211e+00	1.225215e+00	1.225219e+00	1.225218e+00	1.225207e+00	1.225199e+00	1.225191e+00	1.225183e+00	1.225173e+00	1.225161e+00	1.225149e+00	1.225134e+00	1.225112e+00	1.225084e+00	1.225044e+00	1.224976e+00	1.224844e+00	1.224687e+00	1.224591e+00	1.214965e+00	1.212733e+00	1.212959e+00	1.212948e+00	1.212629e+00	1.211343e+00	1.208255e+00	1.205663e+00	1.205454e+00	1.206504e+00	1.207525e+00	1.208204e+00	1.208593e+00	1.208677e+00	1.208670e+00	1.208635e+00	1.208567e+00	1.208440e+00	1.208173e+00	1.207818e+00	1.207327e+00	1.206940e+00	1.206553e+00	1.206176e+00	1.205811e+00	1.205498e+00	1.205078e+00	1.204738e+00	1.204419e+00	1.204064e+00	1.203694e+00	1.203341e+00	1.203053e+00	1.202788e+00	1.202564e+00	1.202231e+00	1.201862e+00	1.201384e+00	1.201060e+00	1.200707e+00	1.200360e+00	1.199925e+00	1.199550e+00	1.199103e+00	1.198603e+00	1.198224e+00	1.197796e+00	1.197350e+00	1.196807e+00	1.196348e+00	1.195865e+00	1.195380e+00	1.194801e+00	1.194255e+00	1.193644e+00	1.193130e+00	1.192568e+00	1.192058e+00	1.191499e+00	1.190927e+00	1.190261e+00	1.189536e+00	1.188620e+00	1.187702e+00	1.186819e+00	1.185981e+00	1.185355e+00	1.184860e+00	1.184386e+00	1.183864e+00	1.183039e+00	1.182185e+00	1.181087e+00	1.180175e+00	1.179470e+00	1.178785e+00	1.178231e+00	1.177717e+00	1.177711e+00	1.177577e+00	1.177556e+00	1.177472e+00	1.177464e+00	1.177366e+00	1.177108e+00	1.176794e+00	1.176368e+00	1.175985e+00	1.175585e+00	1.175162e+00	1.174751e+00	1.174376e+00	1.174012e+00	1.173575e+00	1.173366e+00	1.172809e+00	1.172312e+00	1.171961e+00	1.171203e+00	1.170503e+00	1.169936e+00	1.169037e+00	1.168474e+00	1.168063e+00	1.167828e+00	1.168083e+00	1.168329e+00	1.168311e+00	1.168036e+00	1.167578e+00	1.167354e+00	1.166861e+00	1.166302e+00	1.165835e+00	1.165427e+00	1.165065e+00	1.164820e+00	1.165267e+00	1.166045e+00	1.166734e+00	1.168513e+00	1.169279e+00	1.170408e+00	1.170532e+00	1.170166e+00	1.170802e+00	1.172708e+00	1.175502e+00	1.177839e+00	1.179091e+00	1.178951e+00	1.178256e+00	1.183381e+00	1.187952e+00	1.191617e+00	1.196617e+00	1.199237e+00	1.204314e+00	1.210999e+00	1.216632e+00	1.220284e+00	1.225117e+00	1.232299e+00	1.237286e+00	1.236850e+00	1.235974e+00	1.235617e+00	1.235354e+00	1.235531e+00	1.235506e+00	1.235870e+00	1.235857e+00	1.235810e+00	1.235924e+00	1.236126e+00	1.236115e+00	1.236151e+00	1.236200e+00	1.236134e+00	1.236226e+00	1.236305e+00	1.236317e+00	1.236270e+00	1.236343e+00	1.236385e+00	1.236370e+00	1.236346e+00	1.236358e+00	1.236422e+00	1.236431e+00	1.236554e+00	1.236572e+00	1.236496e+00	1.236515e+00	1.236522e+00	1.236536e+00	1.236640e+00	1.236674e+00	1.236643e+00	1.236597e+00	1.236668e+00	1.236637e+00	1.236607e+00	1.236551e+00	1.236575e+00	1.236542e+00	1.236502e+00	1.236468e+00	1.236522e+00	1.236510e+00	1.236444e+00	1.236400e+00	1.236380e+00	1.236359e+00	1.236443e+00	1.236483e+00	1.236459e+00	1.236414e+00	1.236425e+00	1.236374e+00	1.236401e+00	1.236336e+00	1.236306e+00	1.236295e+00	1.236219e+00	1.236232e+00	1.236210e+00	1.236193e+00	1.236201e+00	1.236193e+00	1.236218e+00	1.236158e+00	1.236141e+00	1.236174e+00	1.236151e+00	1.236056e+00	1.236048e+00	1.236064e+00	1.236025e+00	1.236001e+00	1.235991e+00	1.235955e+00	1.235985e+00	1.235971e+00	1.235939e+00	1.235874e+00	1.235903e+00	1.235882e+00	1.235866e+00	1.235903e+00	1.235843e+00	1.235764e+00	1.235739e+00	1.235726e+00	1.235711e+00	1.235715e+00	1.235663e+00	1.235652e+00	1.235674e+00	1.235667e+00	1.235604e+00	1.235558e+00	1.235577e+00	1.235533e+00	1.235512e+00	1.235481e+00	1.235464e+00	1.235499e+00	1.235489e+00	1.235449e+00	1.235412e+00	1.235426e+00	1.235386e+00	1.235357e+00	1.235362e+00	1.235319e+00	1.235270e+00	1.235261e+00	1.235245e+00	1.235226e+00	1.235234e+00	1.235205e+00	1.235159e+00	1.235124e+00	1.235126e+00	1.235073e+00	1.235036e+00	1.235000e+00	1.234947e+00	1.234943e+00	1.234918e+00	1.234876e+00	1.234844e+00	1.234787e+00	1.234791e+00	1.234789e+00	1.234737e+00	1.234707e+00	1.234673e+00	1.234662e+00	1.234616e+00	1.234587e+00	1.234545e+00	1.234532e+00	1.234500e+00	1.234482e+00	1.234474e+00	1.234431e+00	1.234462e+00	1.234463e+00	1.234440e+00	1.234393e+00	1.234383e+00	1.234348e+00	1.234279e+00	1.234300e+00	1.234216e+00	1.234120e+00	1.234065e+00	1.234020e+00	1.233968e+00	1.233924e+00	1.233845e+00	1.233790e+00	1.233720e+00	1.233656e+00	1.233672e+00	1.233715e+00	1.233756e+00	1.233706e+00	1.233644e+00	1.233571e+00	1.233680e+00	1.233518e+00	1.233470e+00	1.233363e+00	1.233220e+00	1.233126e+00	1.232975e+00	1.232811e+00	1.232694e+00	1.232776e+00	1.232763e+00	1.232713e+00	1.232655e+00	1.232578e+00	1.232513e+00	1.232406e+00	1.232360e+00	1.232331e+00	1.232105e+00	1.231984e+00	1.232064e+00	1.232193e+00	1.232164e+00	1.232101e+00	1.231865e+00	1.231538e+00	1.231044e+00	1.230455e+00	1.230783e+00	1.231383e+00	1.234810e+00	1.141653e+00	1.162755e+00	1.170491e+00	1.173460e+00	1.163443e+00	1.224585e+00	1.225303e+00	1.225574e+00	1.224261e+00	1.226129e+00	1.223987e+00	1.223390e+00	1.227111e+00	1.223076e+00	1.221853e+00	1.219584e+00	1.228631e+00	1.231306e+00	1.220638e+00	1.233344e+00	1.213055e+00	1.224801e+00	1.235940e+00	1.226282e+00	1.219234e+00	1.205422e+00	1.225528e+00	1.237288e+00	1.225020e+00	1.231358e+00	1.228349e+00	1.218959e+00	1.216479e+00	1.228911e+00	1.237566e+00	1.212366e+00	1.198064e+00	1.234734e+00	1.212589e+00	1.227381e+00	1.216362e+00	1.234080e+00	1.234036e+00	1.231482e+00	1.229290e+00	1.220556e+00	1.224736e+00	1.225181e+00	1.206528e+00	1.233592e+00	1.237738e+00	1.238502e+00	1.200712e+00	1.237656e+00	1.236312e+00	1.228138e+00	1.228976e+00	1.233851e+00	1.229800e+00	1.209830e+00	1.213470e+00	1.214771e+00	1.217318e+00	1.224810e+00	1.229577e+00	1.221474e+00	1.231851e+00	1.227160e+00	1.230201e+00	1.194541e+00	1.228775e+00	1.222884e+00	1.228176e+00	1.227366e+00	1.211166e+00	1.207207e+00	1.212219e+00	1.213023e+00	1.213699e+00	1.214953e+00	1.216543e+00	1.225229e+00	1.230197e+00	1.236904e+00	1.238238e+00	1.227914e+00	1.233852e+00	1.232452e+00	1.236033e+00	1.234947e+00	1.226591e+00	1.230925e+00	1.201441e+00	1.238009e+00	1.228334e+00	1.228858e+00	1.226999e+00	1.219244e+00	1.233272e+00	1.228103e+00	1.225596e+00	1.237975e+00	1.237323e+00	1.232226e+00	1.235297e+00	1.237360e+00	1.193119e+00	1.204189e+00	1.207058e+00	1.208004e+00	1.209177e+00	1.209840e+00	1.210505e+00	1.210762e+00	1.227181e+00	1.226607e+00	1.226116e+00	1.225748e+00	1.211213e+00	1.211676e+00	1.224604e+00	1.225166e+00	1.229920e+00	1.236622e+00	1.230708e+00	1.229718e+00	1.211890e+00	1.212337e+00	1.212936e+00	1.213461e+00	1.233178e+00	1.210823e+00	1.214075e+00	1.215447e+00	1.237735e+00	1.225171e+00	1.225233e+00	1.231566e+00	1.230354e+00	1.192358e+00	1.197896e+00	1.204045e+00	1.188258e+00	1.228385e+00	1.236235e+00	1.235816e+00	1.235138e+00	1.224777e+00	1.220951e+00	1.235742e+00	1.224946e+00	1.228727e+00	1.228113e+00	1.229589e+00	1.220493e+00	1.237472e+00	1.237197e+00	1.233264e+00	1.237785e+00	1.234036e+00	1.225466e+00	1.224662e+00	1.226677e+00	1.232872e+00	1.216025e+00	1.221053e+00	1.204998e+00	1.237858e+00	1.205742e+00	1.235277e+00	1.230589e+00	1.227453e+00	1.224406e+00	1.225561e+00	1.234420e+00	1.194343e+00	1.233034e+00	1.206285e+00	1.233163e+00	1.238293e+00	1.236719e+00	1.236489e+00	1.227891e+00	1.235745e+00	1.226796e+00	1.226361e+00	1.207580e+00	1.208391e+00	1.224705e+00	1.226714e+00	1.225403e+00	1.231693e+00	1.199286e+00	1.237440e+00	1.233079e+00	1.223132e+00	1.224164e+00	1.232185e+00	1.212386e+00	1.214937e+00	1.208093e+00	1.237378e+00	1.236079e+00	1.237571e+00	1.238344e+00	1.230014e+00	1.236511e+00	1.227432e+00	1.235390e+00	1.225893e+00	1.209243e+00	1.237279e+00	1.209928e+00	1.185223e+00	1.211315e+00	1.224658e+00	1.228217e+00	1.225914e+00	1.223791e+00	1.223419e+00	1.230610e+00	1.213123e+00	1.224474e+00	1.184608e+00	1.225345e+00	1.225347e+00	1.208339e+00	1.226274e+00	1.225270e+00	1.209984e+00	1.212847e+00	1.212611e+00	1.220680e+00	1.206591e+00	1.202301e+00	1.209440e+00	1.207575e+00	1.210511e+00	1.223518e+00	1.211103e+00	1.229364e+00	1.211778e+00	1.232343e+00	1.210765e+00	1.224507e+00	1.237199e+00	1.189787e+00	1.236019e+00	1.211426e+00	1.211709e+00	1.211693e+00	1.223158e+00	1.224687e+00	1.212291e+00	1.212256e+00	1.229670e+00	1.236451e+00	1.215415e+00	1.225058e+00	1.233757e+00	1.224096e+00	1.209446e+00	1.210223e+00	1.209748e+00	1.210854e+00	1.191231e+00	1.196490e+00	1.217187e+00	1.203602e+00	1.215438e+00	1.236061e+00	1.238211e+00	1.200110e+00	1.203495e+00	1.229690e+00	1.210983e+00	1.236582e+00	1.228496e+00	1.234032e+00	1.235549e+00	1.222752e+00	1.222777e+00	1.217400e+00	1.222320e+00	1.200796e+00	1.229700e+00	1.184194e+00	1.208948e+00	1.211090e+00	1.230856e+00	1.235304e+00	1.236801e+00	1.186404e+00	1.230627e+00	1.237050e+00	1.234039e+00	1.222287e+00	1.210341e+00	1.236813e+00	1.227793e+00	1.217857e+00	1.223602e+00	1.237214e+00	1.233931e+00	1.234769e+00	1.234557e+00	1.226124e+00	1.236559e+00	1.230376e+00	1.230590e+00	1.225321e+00	1.224025e+00	1.224490e+00	1.231510e+00	1.235515e+00	1.233600e+00	1.233432e+00	1.220271e+00	1.212727e+00	1.210891e+00	1.214719e+00	1.215497e+00	1.224464e+00	1.225820e+00	1.235223e+00	1.233196e+00	1.232438e+00	1.228600e+00	1.227619e+00	1.227316e+00	1.226203e+00	1.204612e+00	1.226566e+00	1.221359e+00	1.234819e+00	1.211915e+00	1.235185e+00	1.226812e+00	1.230750e+00	1.224035e+00	1.204547e+00	1.237071e+00	1.226964e+00	1.237442e+00	1.237348e+00	1.221629e+00	1.238107e+00	1.237212e+00	1.213827e+00	1.236506e+00	1.217643e+00	1.202519e+00	1.237507e+00	1.234106e+00	1.238403e+00	1.207669e+00	1.237013e+00	1.227719e+00	1.224498e+00	1.206935e+00	1.221986e+00	1.227737e+00	1.233219e+00	1.223359e+00	1.207376e+00	1.206607e+00	1.226978e+00	1.226742e+00	1.203710e+00	1.205440e+00	1.226765e+00	1.224155e+00	1.224684e+00	1.235605e+00	1.224700e+00	1.224010e+00	1.235636e+00	1.223465e+00	1.217356e+00	1.191825e+00	1.199469e+00	1.223697e+00	1.210219e+00	1.225539e+00	1.210248e+00	1.224908e+00	1.231550e+00	1.238472e+00	1.216994e+00	1.227277e+00	1.235899e+00	1.231057e+00	1.225020e+00	1.225068e+00	1.210483e+00	1.209964e+00	1.223586e+00	1.233238e+00	1.225237e+00	1.219647e+00	1.222657e+00	1.227962e+00	1.222064e+00	1.238161e+00	1.226049e+00	1.236659e+00	1.212493e+00	1.225048e+00	1.232921e+00	1.221490e+00	1.204335e+00	1.236179e+00	1.225211e+00	1.224565e+00	1.221695e+00	1.235632e+00	1.234814e+00	1.179607e+00	1.236423e+00	1.230343e+00	1.208212e+00	1.214640e+00	1.235175e+00	1.234248e+00	1.224847e+00	1.228219e+00	1.225113e+00	1.228598e+00	1.208773e+00	1.225995e+00	1.225416e+00	1.225743e+00	1.211500e+00	1.183560e+00	1.184994e+00	1.205779e+00	1.237810e+00	1.235232e+00	1.209184e+00	1.208791e+00	1.23444