# vtk DataFile Version 3.0
vtk output
ASCII
DATASET UNSTRUCTURED_GRID
POINTS 15671 double
8.250000e-01	2.490000e-02	0.0	6.750000e-01	-2.870000e-02	0.0	8.250000e-01	2.410000e-02	0.0	1.078890e+00	-1.341520e-01	0.0	1.073600e+00	-1.423860e-01	0.0	3.000000e+01	0.000000e+00	0.0	0.000000e+00	3.000000e+01	0.0	-3.000000e+01	0.000000e+00	0.0	0.000000e+00	-3.000000e+01	0.0	8.225136e-01	2.515232e-02	0.0	8.200260e-01	2.539252e-02	0.0	8.175378e-01	2.562525e-02	0.0	8.150494e-01	2.585730e-02	0.0	8.125613e-01	2.609165e-02	0.0	8.100736e-01	2.633135e-02	0.0	8.075861e-01	2.657236e-02	0.0	8.050983e-01	2.680983e-02	0.0	8.026098e-01	2.704006e-02	0.0	8.001202e-01	2.725873e-02	0.0	7.976299e-01	2.746874e-02	0.0	7.951395e-01	2.767761e-02	0.0	7.926495e-01	2.789148e-02	0.0	7.901604e-01	2.811515e-02	0.0	7.876726e-01	2.835330e-02	0.0	7.851860e-01	2.860319e-02	0.0	7.826998e-01	2.885676e-02	0.0	7.802132e-01	2.910705e-02	0.0	7.777258e-01	2.934887e-02	0.0	7.752372e-01	2.957879e-02	0.0	7.727477e-01	2.979747e-02	0.0	7.702575e-01	3.000941e-02	0.0	7.677670e-01	3.021649e-02	0.0	7.652761e-01	3.042027e-02	0.0	7.627851e-01	3.062199e-02	0.0	7.602941e-01	3.082274e-02	0.0	7.578030e-01	3.102339e-02	0.0	7.553119e-01	3.122471e-02	0.0	7.528212e-01	3.142976e-02	0.0	7.503311e-01	3.164143e-02	0.0	7.478411e-01	3.185610e-02	0.0	7.453511e-01	3.206905e-02	0.0	7.428606e-01	3.227672e-02	0.0	7.403695e-01	3.247765e-02	0.0	7.378779e-01	3.267186e-02	0.0	7.353859e-01	3.286004e-02	0.0	7.328934e-01	3.304304e-02	0.0	7.304007e-01	3.322165e-02	0.0	7.279077e-01	3.339668e-02	0.0	7.254145e-01	3.356925e-02	0.0	7.229212e-01	3.374009e-02	0.0	7.204278e-01	3.390963e-02	0.0	7.179343e-01	3.407814e-02	0.0	7.154408e-01	3.424580e-02	0.0	7.129472e-01	3.441275e-02	0.0	7.104536e-01	3.457908e-02	0.0	7.079600e-01	3.474488e-02	0.0	7.054663e-01	3.491018e-02	0.0	7.029726e-01	3.507505e-02	0.0	7.004789e-01	3.523952e-02	0.0	6.979851e-01	3.540361e-02	0.0	6.954913e-01	3.556734e-02	0.0	6.929975e-01	3.573075e-02	0.0	6.905037e-01	3.589382e-02	0.0	6.880099e-01	3.605658e-02	0.0	6.855160e-01	3.621902e-02	0.0	6.830221e-01	3.638113e-02	0.0	6.805282e-01	3.654289e-02	0.0	6.780343e-01	3.670427e-02	0.0	6.755403e-01	3.686520e-02	0.0	6.730464e-01	3.702597e-02	0.0	6.705524e-01	3.718730e-02	0.0	6.680585e-01	3.734890e-02	0.0	6.655645e-01	3.750979e-02	0.0	6.630704e-01	3.766751e-02	0.0	6.605758e-01	3.781852e-02	0.0	6.580808e-01	3.796176e-02	0.0	6.555854e-01	3.809962e-02	0.0	6.530899e-01	3.823465e-02	0.0	6.505943e-01	3.836829e-02	0.0	6.480987e-01	3.850119e-02	0.0	6.456031e-01	3.863339e-02	0.0	6.431074e-01	3.876490e-02	0.0	6.406117e-01	3.889573e-02	0.0	6.381159e-01	3.902586e-02	0.0	6.356201e-01	3.915530e-02	0.0	6.331243e-01	3.928401e-02	0.0	6.306284e-01	3.941197e-02	0.0	6.281325e-01	3.953916e-02	0.0	6.256365e-01	3.966553e-02	0.0	6.231406e-01	3.979105e-02	0.0	6.206445e-01	3.991565e-02	0.0	6.181484e-01	4.003928e-02	0.0	6.156523e-01	4.016186e-02	0.0	6.131561e-01	4.028332e-02	0.0	6.106598e-01	4.040356e-02	0.0	6.081635e-01	4.052246e-02	0.0	6.056671e-01	4.063988e-02	0.0	6.031707e-01	4.075566e-02	0.0	6.006741e-01	4.086959e-02	0.0	5.981775e-01	4.098194e-02	0.0	5.956808e-01	4.109386e-02	0.0	5.931842e-01	4.120528e-02	0.0	5.906875e-01	4.131604e-02	0.0	5.881908e-01	4.142599e-02	0.0	5.856940e-01	4.153499e-02	0.0	5.831972e-01	4.164289e-02	0.0	5.807003e-01	4.174954e-02	0.0	5.782034e-01	4.185478e-02	0.0	5.757064e-01	4.195847e-02	0.0	5.732093e-01	4.206046e-02	0.0	5.707122e-01	4.216060e-02	0.0	5.682149e-01	4.225874e-02	0.0	5.657176e-01	4.235473e-02	0.0	5.632202e-01	4.244843e-02	0.0	5.607228e-01	4.253967e-02	0.0	5.582252e-01	4.262832e-02	0.0	5.557275e-01	4.271422e-02	0.0	5.532297e-01	4.279722e-02	0.0	5.507319e-01	4.287717e-02	0.0	5.482339e-01	4.295335e-02	0.0	5.457357e-01	4.302426e-02	0.0	5.432375e-01	4.309033e-02	0.0	5.407391e-01	4.315208e-02	0.0	5.382406e-01	4.321004e-02	0.0	5.357421e-01	4.326471e-02	0.0	5.332434e-01	4.331664e-02	0.0	5.307448e-01	4.336634e-02	0.0	5.282461e-01	4.341433e-02	0.0	5.257474e-01	4.346115e-02	0.0	5.232487e-01	4.350731e-02	0.0	5.207499e-01	4.355333e-02	0.0	5.182512e-01	4.359975e-02	0.0	5.157525e-01	4.364709e-02	0.0	5.132539e-01	4.369586e-02	0.0	5.107552e-01	4.374660e-02	0.0	5.082566e-01	4.379982e-02	0.0	5.057581e-01	4.385606e-02	0.0	5.032597e-01	4.391583e-02	0.0	5.007614e-01	4.397966e-02	0.0	4.982631e-01	4.404807e-02	0.0	4.957651e-01	4.412106e-02	0.0	4.932671e-01	4.419809e-02	0.0	4.907692e-01	4.427859e-02	0.0	4.882715e-01	4.436201e-02	0.0	4.857738e-01	4.444779e-02	0.0	4.832762e-01	4.453535e-02	0.0	4.807786e-01	4.462415e-02	0.0	4.782811e-01	4.471362e-02	0.0	4.757835e-01	4.480321e-02	0.0	4.732860e-01	4.489235e-02	0.0	4.707884e-01	4.498048e-02	0.0	4.682907e-01	4.506704e-02	0.0	4.657930e-01	4.515148e-02	0.0	4.632952e-01	4.523322e-02	0.0	4.607973e-01	4.531172e-02	0.0	4.582993e-01	4.538641e-02	0.0	4.558011e-01	4.545672e-02	0.0	4.533028e-01	4.552210e-02	0.0	4.508044e-01	4.558198e-02	0.0	4.483058e-01	4.563631e-02	0.0	4.458072e-01	4.568647e-02	0.0	4.433085e-01	4.573283e-02	0.0	4.408097e-01	4.577564e-02	0.0	4.383108e-01	4.581518e-02	0.0	4.358120e-01	4.585169e-02	0.0	4.333130e-01	4.588545e-02	0.0	4.308141e-01	4.591671e-02	0.0	4.283151e-01	4.594574e-02	0.0	4.258161e-01	4.597280e-02	0.0	4.233171e-01	4.599815e-02	0.0	4.208180e-01	4.602205e-02	0.0	4.183190e-01	4.604476e-02	0.0	4.158199e-01	4.606656e-02	0.0	4.133209e-01	4.608769e-02	0.0	4.108218e-01	4.610842e-02	0.0	4.083228e-01	4.612902e-02	0.0	4.058237e-01	4.614975e-02	0.0	4.033246e-01	4.617086e-02	0.0	4.008256e-01	4.619262e-02	0.0	3.983265e-01	4.621500e-02	0.0	3.958275e-01	4.623715e-02	0.0	3.933284e-01	4.625892e-02	0.0	3.908294e-01	4.628024e-02	0.0	3.883303e-01	4.630103e-02	0.0	3.858312e-01	4.632123e-02	0.0	3.833322e-01	4.634075e-02	0.0	3.808331e-01	4.635952e-02	0.0	3.783340e-01	4.637747e-02	0.0	3.758349e-01	4.639452e-02	0.0	3.733358e-01	4.641059e-02	0.0	3.708367e-01	4.642562e-02	0.0	3.683376e-01	4.643952e-02	0.0	3.658385e-01	4.645222e-02	0.0	3.633394e-01	4.646365e-02	0.0	3.608402e-01	4.647373e-02	0.0	3.583411e-01	4.648238e-02	0.0	3.558420e-01	4.648954e-02	0.0	3.533428e-01	4.649512e-02	0.0	3.508437e-01	4.649906e-02	0.0	3.483445e-01	4.650138e-02	0.0	3.458454e-01	4.650243e-02	0.0	3.433462e-01	4.650223e-02	0.0	3.408471e-01	4.650078e-02	0.0	3.383479e-01	4.649808e-02	0.0	3.358488e-01	4.649413e-02	0.0	3.333496e-01	4.648893e-02	0.0	3.308505e-01	4.648248e-02	0.0	3.283514e-01	4.647478e-02	0.0	3.258522e-01	4.646584e-02	0.0	3.233531e-01	4.645564e-02	0.0	3.208540e-01	4.644420e-02	0.0	3.183549e-01	4.643150e-02	0.0	3.158558e-01	4.641756e-02	0.0	3.133567e-01	4.640237e-02	0.0	3.108576e-01	4.638593e-02	0.0	3.083585e-01	4.636824e-02	0.0	3.058594e-01	4.634930e-02	0.0	3.033603e-01	4.632911e-02	0.0	3.008613e-01	4.630768e-02	0.0	2.983622e-01	4.628515e-02	0.0	2.958632e-01	4.626200e-02	0.0	2.933641e-01	4.623817e-02	0.0	2.908651e-01	4.621353e-02	0.0	2.883661e-01	4.618799e-02	0.0	2.858671e-01	4.616143e-02	0.0	2.833681e-01	4.613373e-02	0.0	2.808691e-01	4.610478e-02	0.0	2.783702e-01	4.607447e-02	0.0	2.758712e-01	4.604270e-02	0.0	2.733723e-01	4.600933e-02	0.0	2.708734e-01	4.597427e-02	0.0	2.683745e-01	4.593741e-02	0.0	2.658757e-01	4.589862e-02	0.0	2.633768e-01	4.585780e-02	0.0	2.608781e-01	4.581483e-02	0.0	2.583793e-01	4.576960e-02	0.0	2.558806e-01	4.572201e-02	0.0	2.533820e-01	4.567193e-02	0.0	2.508834e-01	4.561926e-02	0.0	2.483848e-01	4.556415e-02	0.0	2.458863e-01	4.550741e-02	0.0	2.433879e-01	4.544906e-02	0.0	2.408894e-01	4.538900e-02	0.0	2.383911e-01	4.532718e-02	0.0	2.358927e-01	4.526351e-02	0.0	2.333944e-01	4.519793e-02	0.0	2.308962e-01	4.513034e-02	0.0	2.283980e-01	4.506069e-02	0.0	2.258999e-01	4.498890e-02	0.0	2.234018e-01	4.491489e-02	0.0	2.209039e-01	4.483859e-02	0.0	2.184060e-01	4.475992e-02	0.0	2.159081e-01	4.467881e-02	0.0	2.134104e-01	4.459518e-02	0.0	2.109127e-01	4.450897e-02	0.0	2.084151e-01	4.442009e-02	0.0	2.059177e-01	4.432847e-02	0.0	2.034203e-01	4.423404e-02	0.0	2.009231e-01	4.413672e-02	0.0	1.984259e-01	4.403650e-02	0.0	1.959289e-01	4.393359e-02	0.0	1.934320e-01	4.382811e-02	0.0	1.909352e-01	4.372013e-02	0.0	1.884384e-01	4.360972e-02	0.0	1.859418e-01	4.349693e-02	0.0	1.834453e-01	4.338178e-02	0.0	1.809490e-01	4.326430e-02	0.0	1.784527e-01	4.314449e-02	0.0	1.759565e-01	4.302235e-02	0.0	1.734605e-01	4.289786e-02	0.0	1.709646e-01	4.277100e-02	0.0	1.684688e-01	4.264170e-02	0.0	1.659731e-01	4.250992e-02	0.0	1.634775e-01	4.237557e-02	0.0	1.609822e-01	4.223856e-02	0.0	1.584869e-01	4.209876e-02	0.0	1.559918e-01	4.195602e-02	0.0	1.534970e-01	4.181016e-02	0.0	1.510023e-01	4.166095e-02	0.0	1.485078e-01	4.150830e-02	0.0	1.460135e-01	4.135261e-02	0.0	1.435194e-01	4.119369e-02	0.0	1.410255e-01	4.103126e-02	0.0	1.385319e-01	4.086503e-02	0.0	1.360386e-01	4.069471e-02	0.0	1.335456e-01	4.052000e-02	0.0	1.310529e-01	4.034059e-02	0.0	1.285605e-01	4.015619e-02	0.0	1.260686e-01	3.996653e-02	0.0	1.235771e-01	3.977132e-02	0.0	1.210860e-01	3.957032e-02	0.0	1.185954e-01	3.936331e-02	0.0	1.161054e-01	3.915010e-02	0.0	1.136159e-01	3.893054e-02	0.0	1.111270e-01	3.870451e-02	0.0	1.086387e-01	3.847177e-02	0.0	1.061512e-01	3.823146e-02	0.0	1.036643e-01	3.798369e-02	0.0	1.011782e-01	3.772865e-02	0.0	9.869287e-02	3.746648e-02	0.0	9.620827e-02	3.719729e-02	0.0	9.372442e-02	3.692112e-02	0.0	9.124137e-02	3.663798e-02	0.0	8.875912e-02	3.634781e-02	0.0	8.627772e-02	3.605050e-02	0.0	8.379721e-02	3.574585e-02	0.0	8.131765e-02	3.543360e-02	0.0	7.883910e-02	3.511337e-02	0.0	7.636167e-02	3.478463e-02	0.0	7.388555e-02	3.444616e-02	0.0	7.141141e-02	3.409353e-02	0.0	6.893949e-02	3.372563e-02	0.0	6.646993e-02	3.334223e-02	0.0	6.400283e-02	3.294327e-02	0.0	6.153828e-02	3.252889e-02	0.0	5.907630e-02	3.209950e-02	0.0	5.661685e-02	3.165585e-02	0.0	5.415979e-02	3.119911e-02	0.0	5.170489e-02	3.073094e-02	0.0	4.925167e-02	3.025400e-02	0.0	4.679885e-02	2.977507e-02	0.0	4.434779e-02	2.928717e-02	0.0	4.190165e-02	2.877527e-02	0.0	3.946461e-02	2.822178e-02	0.0	3.704086e-02	2.761278e-02	0.0	3.463303e-02	2.694363e-02	0.0	3.224134e-02	2.621885e-02	0.0	2.986710e-02	2.543878e-02	0.0	2.750733e-02	2.461591e-02	0.0	2.515848e-02	2.376234e-02	0.0	2.281
[...]
POINT_DATA 15671

SCALARS Density double 1
LOOKUP_TABLE default
1.168494e+00	1.208843e+00	1.177590e+00	1.185005e+00	1.191009e+00	1.224659e+00	1.224791e+00	1.225032e+00	1.225165e+00	1.202864e+00	1.201825e+00	1.201987e+00	1.201980e+00	1.201837e+00	1.201566e+00	1.201433e+00	1.201518e+00	1.201930e+00	1.202656e+00	1.203294e+00	1.203694e+00	1.203970e+00	1.203543e+00	1.203067e+00	1.202565e+00	1.202273e+00	1.202185e+00	1.202349e+00	1.202745e+00	1.203152e+00	1.203440e+00	1.203719e+00	1.203981e+00	1.204233e+00	1.204452e+00	1.204632e+00	1.204767e+00	1.204619e+00	1.204345e+00	1.204156e+00	1.204115e+00	1.204222e+00	1.204416e+00	1.204622e+00	1.204835e+00	1.205045e+00	1.205245e+00	1.205448e+00	1.205632e+00	1.205789e+00	1.205914e+00	1.206048e+00	1.206170e+00	1.206286e+00	1.206381e+00	1.206456e+00	1.206548e+00	1.206642e+00	1.206737e+00	1.206803e+00	1.206869e+00	1.206931e+00	1.206964e+00	1.207027e+00	1.207075e+00	1.207124e+00	1.207175e+00	1.207220e+00	1.207250e+00	1.207244e+00	1.207160e+00	1.207046e+00	1.206960e+00	1.207025e+00	1.207247e+00	1.207505e+00	1.207727e+00	1.207880e+00	1.207955e+00	1.208032e+00	1.208112e+00	1.208168e+00	1.208216e+00	1.208282e+00	1.208345e+00	1.208394e+00	1.208459e+00	1.208523e+00	1.208547e+00	1.208600e+00	1.208622e+00	1.208684e+00	1.208705e+00	1.208734e+00	1.208787e+00	1.208835e+00	1.208895e+00	1.208946e+00	1.209024e+00	1.209102e+00	1.209123e+00	1.209158e+00	1.209175e+00	1.209187e+00	1.209212e+00	1.209239e+00	1.209261e+00	1.209298e+00	1.209320e+00	1.209344e+00	1.209363e+00	1.209393e+00	1.209415e+00	1.209426e+00	1.209449e+00	1.209518e+00	1.209566e+00	1.209589e+00	1.209650e+00	1.209743e+00	1.209890e+00	1.210032e+00	1.210180e+00	1.210344e+00	1.210484e+00	1.210653e+00	1.210836e+00	1.211003e+00	1.211133e+00	1.211295e+00	1.211437e+00	1.211533e+00	1.211657e+00	1.211767e+00	1.211903e+00	1.211952e+00	1.212014e+00	1.212024e+00	1.212016e+00	1.211948e+00	1.211906e+00	1.211807e+00	1.211724e+00	1.211636e+00	1.211553e+00	1.211453e+00	1.211374e+00	1.211274e+00	1.211197e+00	1.211111e+00	1.211032e+00	1.210949e+00	1.210879e+00	1.210830e+00	1.210808e+00	1.210797e+00	1.210797e+00	1.210854e+00	1.210951e+00	1.211047e+00	1.211120e+00	1.211208e+00	1.211283e+00	1.211358e+00	1.211445e+00	1.211545e+00	1.211629e+00	1.211719e+00	1.211806e+00	1.211869e+00	1.211949e+00	1.212030e+00	1.212105e+00	1.212159e+00	1.212226e+00	1.212268e+00	1.212291e+00	1.212305e+00	1.212307e+00	1.212302e+00	1.212308e+00	1.212333e+00	1.212347e+00	1.212373e+00	1.212383e+00	1.212384e+00	1.212393e+00	1.212369e+00	1.212385e+00	1.212391e+00	1.212390e+00	1.212415e+00	1.212422e+00	1.212439e+00	1.212457e+00	1.212469e+00	1.212502e+00	1.212526e+00	1.212569e+00	1.212591e+00	1.212619e+00	1.212638e+00	1.212670e+00	1.212688e+00	1.212720e+00	1.212734e+00	1.212743e+00	1.212775e+00	1.212804e+00	1.212805e+00	1.212813e+00	1.212851e+00	1.212874e+00	1.212902e+00	1.212917e+00	1.212951e+00	1.212973e+00	1.213009e+00	1.213044e+00	1.213029e+00	1.213037e+00	1.213017e+00	1.213022e+00	1.213016e+00	1.213029e+00	1.213021e+00	1.213033e+00	1.213019e+00	1.213028e+00	1.213012e+00	1.213017e+00	1.213015e+00	1.213030e+00	1.213024e+00	1.213047e+00	1.213039e+00	1.213043e+00	1.213079e+00	1.213131e+00	1.213145e+00	1.213167e+00	1.213176e+00	1.213200e+00	1.213210e+00	1.213205e+00	1.213202e+00	1.213230e+00	1.213250e+00	1.213216e+00	1.213193e+00	1.213216e+00	1.213230e+00	1.213224e+00	1.213278e+00	1.213297e+00	1.213266e+00	1.213269e+00	1.213269e+00	1.213315e+00	1.213332e+00	1.213374e+00	1.213378e+00	1.213404e+00	1.213410e+00	1.213424e+00	1.213419e+00	1.213453e+00	1.213451e+00	1.213508e+00	1.213559e+00	1.213518e+00	1.213492e+00	1.213515e+00	1.213447e+00	1.213393e+00	1.213375e+00	1.213364e+00	1.213347e+00	1.213349e+00	1.213344e+00	1.213307e+00	1.213308e+00	1.213275e+00	1.213293e+00	1.213257e+00	1.213259e+00	1.213185e+00	1.213176e+00	1.213133e+00	1.213136e+00	1.213124e+00	1.213118e+00	1.213202e+00	1.213257e+00	1.213256e+00	1.213186e+00	1.213121e+00	1.213233e+00	1.213287e+00	1.213312e+00	1.213336e+00	1.213260e+00	1.213276e+00	1.213304e+00	1.213332e+00	1.213310e+00	1.213129e+00	1.212970e+00	1.212940e+00	1.212916e+00	1.212984e+00	1.213265e+00	1.213437e+00	1.213684e+00	1.213748e+00	1.213846e+00	1.214125e+00	1.214247e+00	1.214362e+00	1.213868e+00	1.213033e+00	1.212651e+00	1.212648e+00	1.212819e+00	1.213324e+00	1.214231e+00	1.215853e+00	1.217052e+00	1.217958e+00	1.218654e+00	1.219169e+00	1.218818e+00	1.218606e+00	1.217835e+00	1.216286e+00	1.216418e+00	1.226878e+00	1.232995e+00	1.236544e+00	1.245197e+00	1.249892e+00	1.255114e+00	1.257312e+00	1.259824e+00	1.260953e+00	1.259819e+00	1.258590e+00	1.254651e+00	1.249525e+00	1.241707e+00	1.230378e+00	1.222448e+00	1.218767e+00	1.215101e+00	1.212813e+00	1.210892e+00	1.209158e+00	1.209003e+00	1.209603e+00	1.209653e+00	1.209483e+00	1.209289e+00	1.209033e+00	1.209294e+00	1.209443e+00	1.209589e+00	1.209667e+00	1.209625e+00	1.209720e+00	1.209878e+00	1.210148e+00	1.210401e+00	1.210695e+00	1.210922e+00	1.210955e+00	1.210960e+00	1.210997e+00	1.210975e+00	1.211124e+00	1.211165e+00	1.211366e+00	1.211609e+00	1.211764e+00	1.211950e+00	1.212081e+00	1.212298e+00	1.212440e+00	1.212584e+00	1.212652e+00	1.212786e+00	1.212903e+00	1.212982e+00	1.213101e+00	1.213146e+00	1.213260e+00	1.213379e+00	1.213543e+00	1.213677e+00	1.213831e+00	1.213938e+00	1.214043e+00	1.214153e+00	1.214317e+00	1.214419e+00	1.214559e+00	1.214683e+00	1.214831e+00	1.214922e+00	1.215073e+00	1.215193e+00	1.215387e+00	1.215497e+00	1.215583e+00	1.215718e+00	1.215791e+00	1.215929e+00	1.216016e+00	1.216124e+00	1.216186e+00	1.216301e+00	1.216425e+00	1.216486e+00	1.216593e+00	1.216668e+00	1.216770e+00	1.216830e+00	1.216923e+00	1.216994e+00	1.217094e+00	1.217163e+00	1.217248e+00	1.217320e+00	1.217390e+00	1.217459e+00	1.217534e+00	1.217580e+00	1.217655e+00	1.217723e+00	1.217804e+00	1.217893e+00	1.217966e+00	1.218070e+00	1.218149e+00	1.218228e+00	1.218295e+00	1.218380e+00	1.218444e+00	1.218520e+00	1.218619e+00	1.218715e+00	1.218776e+00	1.218811e+00	1.218875e+00	1.218937e+00	1.219006e+00	1.219067e+00	1.219152e+00	1.219236e+00	1.219334e+00	1.219411e+00	1.219466e+00	1.219543e+00	1.219608e+00	1.219689e+00	1.219750e+00	1.219830e+00	1.219900e+00	1.219991e+00	1.220050e+00	1.220134e+00	1.220236e+00	1.220252e+00	1.220355e+00	1.220421e+00	1.220472e+00	1.220550e+00	1.220614e+00	1.220661e+00	1.220724e+00	1.220790e+00	1.220830e+00	1.220881e+00	1.220930e+00	1.220993e+00	1.221041e+00	1.221100e+00	1.221188e+00	1.221256e+00	1.221302e+00	1.221363e+00	1.221419e+00	1.221454e+00	1.221515e+00	1.221567e+00	1.221633e+00	1.221686e+00	1.221747e+00	1.221805e+00	1.221875e+00	1.221922e+00	1.221984e+00	1.222039e+00	1.222098e+00	1.222149e+00	1.222218e+00	1.222271e+00	1.222336e+00	1.222422e+00	1.222482e+00	1.222521e+00	1.222585e+00	1.222638e+00	1.222698e+00	1.222746e+00	1.222791e+00	1.222837e+00	1.222891e+00	1.222944e+00	1.222981e+00	1.223041e+00	1.223092e+00	1.223138e+00	1.223187e+00	1.223235e+00	1.223289e+00	1.223342e+00	1.223394e+00	1.223458e+00	1.223515e+00	1.223558e+00	1.223625e+00	1.223689e+00	1.223749e+00	1.223795e+00	1.223834e+00	1.223906e+00	1.223955e+00	1.223991e+00	1.224012e+00	1.224063e+00	1.224109e+00	1.224154e+00	1.224204e+00	1.224249e+00	1.224297e+00	1.224337e+00	1.224381e+00	1.224419e+00	1.224454e+00	1.224495e+00	1.224567e+00	1.224648e+00	1.224717e+00	1.224784e+00	1.224832e+00	1.224884e+00	1.224917e+00	1.224942e+00	1.224982e+00	1.225014e+00	1.225044e+00	1.225083e+00	1.225117e+00	1.225165e+00	1.225224e+00	1.225263e+00	1.225303e+00	1.225343e+00	1.225392e+00	1.225427e+00	1.225523e+00	1.225631e+00	1.225729e+00	1.225801e+00	1.225861e+00	1.225916e+00	1.225976e+00	1.226024e+00	1.226073e+00	1.226092e+00	1.226122e+00	1.226160e+00	1.226239e+00	1.226270e+00	1.226323e+00	1.226377e+00	1.226416e+00	1.226481e+00	1.226500e+00	1.226602e+00	1.226691e+00	1.226720e+00	1.226785e+00	1.226924e+00	1.227096e+00	1.227212e+00	1.227357e+00	1.227485e+00	1.227612e+00	1.227779e+00	1.227881e+00	1.228010e+00	1.228178e+00	1.228323e+00	1.228520e+00	1.228596e+00	1.228770e+00	1.228934e+00	1.229061e+00	1.229248e+00	1.229342e+00	1.229267e+00	1.229217e+00	1.229169e+00	1.229182e+00	1.229497e+00	1.229961e+00	1.230412e+00	1.231121e+00	1.233285e+00	1.193278e+00	1.204114e+00	1.207646e+00	1.209982e+00	1.211559e+00	1.211971e+00	1.211968e+00	1.212361e+00	1.212731e+00	1.213175e+00	1.213381e+00	1.213787e+00	1.214029e+00	1.214180e+00	1.214377e+00	1.214466e+00	1.214685e+00	1.215078e+00	1.215403e+00	1.215831e+00	1.216155e+00	1.216269e+00	1.216439e+00	1.216532e+00	1.216836e+00	1.217153e+00	1.217356e+00	1.217580e+00	1.217835e+00	1.218074e+00	1.218173e+00	1.218260e+00	1.218587e+00	1.218699e+00	1.218814e+00	1.219000e+00	1.219144e+00	1.219375e+00	1.219609e+00	1.219734e+00	1.219873e+00	1.220073e+00	1.220165e+00	1.220284e+00	1.220518e+00	1.220525e+00	1.220615e+00	1.221011e+00	1.221120e+00	1.221394e+00	1.221603e+00	1.221742e+00	1.221940e+00	1.222323e+00	1.222654e+00	1.222621e+00	1.222906e+00	1.223085e+00	1.223021e+00	1.223053e+00	1.223272e+00	1.222955e+00	1.222881e+00	1.223997e+00	1.222372e+00	1.221031e+00	1.219540e+00	1.217728e+00	1.215073e+00	1.213484e+00	1.224728e+00	1.224773e+00	1.224791e+00	1.224803e+00	1.224805e+00	1.224805e+00	1.224806e+00	1.224803e+00	1.224801e+00	1.224800e+00	1.224796e+00	1.224795e+00	1.224791e+00	1.224791e+00	1.224791e+00	1.224803e+00	1.224813e+00	1.224827e+00	1.224838e+00	1.224851e+00	1.224871e+00	1.224884e+00	1.224900e+00	1.224918e+00	1.224937e+00	1.224953e+00	1.224966e+00	1.224983e+00	1.224999e+00	1.225016e+00	1.225047e+00	1.225064e+00	1.225077e+00	1.225089e+00	1.225104e+00	1.225117e+00	1.225130e+00	1.225141e+00	1.225148e+00	1.225156e+00	1.225165e+00	1.225168e+00	1.225170e+00	1.225171e+00	1.225170e+00	1.225160e+00	1.225153e+00	1.225147e+00	1.225140e+00	1.225131e+00	1.225120e+00	1.225110e+00	1.225096e+00	1.225075e+00	1.225047e+00	1.225004e+00	1.224929e+00	1.224796e+00	1.224664e+00	1.224616e+00	1.215896e+00	1.213644e+00	1.213884e+00	1.213874e+00	1.213544e+00	1.212216e+00	1.209011e+00	1.206302e+00	1.206067e+00	1.207139e+00	1.208192e+00	1.208904e+00	1.209308e+00	1.209404e+00	1.209407e+00	1.209376e+00	1.209310e+00	1.209184e+00	1.208915e+00	1.208554e+00	1.208052e+00	1.207652e+00	1.207255e+00	1.206869e+00	1.206494e+00	1.206170e+00	1.205742e+00	1.205392e+00	1.205064e+00	1.204701e+00	1.204323e+00	1.203962e+00	1.203669e+00	1.203400e+00	1.203172e+00	1.202831e+00	1.202456e+00	1.201970e+00	1.201639e+00	1.201278e+00	1.200923e+00	1.200480e+00	1.200096e+00	1.199641e+00	1.199133e+00	1.198747e+00	1.198308e+00	1.197853e+00	1.197300e+00	1.196832e+00	1.196338e+00	1.195844e+00	1.195255e+00	1.194702e+00	1.194081e+00	1.193558e+00	1.192984e+00	1.192466e+00	1.191897e+00	1.191316e+00	1.190637e+00	1.189896e+00	1.188964e+00	1.188026e+00	1.187122e+00	1.186269e+00	1.185630e+00	1.185127e+00	1.184651e+00	1.184121e+00	1.183285e+00	1.182418e+00	1.181308e+00	1.180383e+00	1.179662e+00	1.178970e+00	1.178415e+00	1.177901e+00	1.177898e+00	1.177774e+00	1.177768e+00	1.177702e+00	1.177705e+00	1.177621e+00	1.177373e+00	1.177071e+00	1.176644e+00	1.176263e+00	1.175870e+00	1.175459e+00	1.175053e+00	1.174682e+00	1.174325e+00	1.173900e+00	1.173702e+00	1.173144e+00	1.172653e+00	1.172309e+00	1.171547e+00	1.170860e+00	1.170305e+00	1.169396e+00	1.168836e+00	1.168436e+00	1.168213e+00	1.168495e+00	1.168758e+00	1.168765e+00	1.168511e+00	1.168047e+00	1.167841e+00	1.167345e+00	1.166817e+00	1.166341e+00	1.165926e+00	1.165597e+00	1.165369e+00	1.165864e+00	1.166657e+00	1.167400e+00	1.169186e+00	1.169977e+00	1.171161e+00	1.171346e+00	1.170976e+00	1.171645e+00	1.173510e+00	1.176359e+00	1.178704e+00	1.179948e+00	1.179854e+00	1.179167e+00	1.184100e+00	1.188438e+00	1.191892e+00	1.196660e+00	1.199092e+00	1.203942e+00	1.210340e+00	1.215717e+00	1.219147e+00	1.223710e+00	1.230525e+00	1.235355e+00	1.234954e+00	1.234155e+00	1.233759e+00	1.233507e+00	1.233660e+00	1.233628e+00	1.233970e+00	1.233957e+00	1.233914e+00	1.234024e+00	1.234215e+00	1.234206e+00	1.234244e+00	1.234293e+00	1.234233e+00	1.234323e+00	1.234402e+00	1.234418e+00	1.234376e+00	1.234449e+00	1.234492e+00	1.234481e+00	1.234459e+00	1.234474e+00	1.234538e+00	1.234550e+00	1.234670e+00	1.234690e+00	1.234618e+00	1.234639e+00	1.234649e+00	1.234665e+00	1.234768e+00	1.234804e+00	1.234777e+00	1.234735e+00	1.234807e+00	1.234780e+00	1.234754e+00	1.234703e+00	1.234729e+00	1.234702e+00	1.234666e+00	1.234637e+00	1.234693e+00	1.234684e+00	1.234623e+00	1.234582e+00	1.234567e+00	1.234549e+00	1.234634e+00	1.234675e+00	1.234654e+00	1.234614e+00	1.234627e+00	1.234580e+00	1.234610e+00	1.234548e+00	1.234522e+00	1.234514e+00	1.234444e+00	1.234460e+00	1.234441e+00	1.234427e+00	1.234438e+00	1.234433e+00	1.234460e+00	1.234402e+00	1.234389e+00	1.234424e+00	1.234404e+00	1.234313e+00	1.234308e+00	1.234326e+00	1.234291e+00	1.234269e+00	1.234262e+00	1.234229e+00	1.234261e+00	1.234249e+00	1.234221e+00	1.234160e+00	1.234190e+00	1.234172e+00	1.234159e+00	1.234197e+00	1.234142e+00	1.234067e+00	1.234045e+00	1.234034e+00	1.234022e+00	1.234029e+00	1.233980e+00	1.233972e+00	1.233996e+00	1.233991e+00	1.233931e+00	1.233888e+00	1.233910e+00	1.233868e+00	1.233849e+00	1.233821e+00	1.233806e+00	1.233842e+00	1.233835e+00	1.233797e+00	1.233764e+00	1.233780e+00	1.233743e+00	1.233716e+00	1.233723e+00	1.233683e+00	1.233638e+00	1.233630e+00	1.233617e+00	1.233602e+00	1.233612e+00	1.233586e+00	1.233543e+00	1.233512e+00	1.233516e+00	1.233467e+00	1.233433e+00	1.233400e+00	1.233351e+00	1.233349e+00	1.233327e+00	1.233289e+00	1.233259e+00	1.233206e+00	1.233213e+00	1.233214e+00	1.233164e+00	1.233139e+00	1.233107e+00	1.233098e+00	1.233055e+00	1.233028e+00	1.232988e+00	1.232977e+00	1.232947e+00	1.232930e+00	1.232924e+00	1.232883e+00	1.232915e+00	1.232919e+00	1.232899e+00	1.232856e+00	1.232849e+00	1.232817e+00	1.232752e+00	1.232777e+00	1.232698e+00	1.232607e+00	1.232556e+00	1.232516e+00	1.232469e+00	1.232428e+00	1.232354e+00	1.232304e+00	1.232239e+00	1.232180e+00	1.232196e+00	1.232238e+00	1.232279e+00	1.232233e+00	1.232175e+00	1.232107e+00	1.232215e+00	1.232064e+00	1.232021e+00	1.231921e+00	1.231789e+00	1.231702e+00	1.231562e+00	1.231409e+00	1.231300e+00	1.231382e+00	1.231372e+00	1.231328e+00	1.231277e+00	1.231208e+00	1.231153e+00	1.231057e+00	1.231021e+00	1.231001e+00	1.230789e+00	1.230680e+00	1.230763e+00	1.230895e+00	1.230879e+00	1.230834e+00	1.230626e+00	1.230327e+00	1.229878e+00	1.229327e+00	1.229680e+00	1.230304e+00	1.233724e+00	1.144351e+00	1.163909e+00	1.170954e+00	1.173604e+00	1.163118e+00	1.224659e+00	1.225237e+00	1.225453e+00	1.224407e+00	1.225893e+00	1.224134e+00	1.223712e+00	1.226667e+00	1.223317e+00	1.222488e+00	1.220252e+00	1.227900e+00	1.230344e+00	1.220994e+00	1.232283e+00	1.213917e+00	1.225922e+00	1.234530e+00	1.226056e+00	1.219659e+00	1.206342e+00	1.225372e+00	1.235535e+00	1.224639e+00	1.229988e+00	1.227330e+00	1.220272e+00	1.217174e+00	1.227251e+00	1.236013e+00	1.213821e+00	1.199066e+00	1.233462e+00	1.213063e+00	1.227082e+00	1.218364e+00	1.232309e+00	1.232496e+00	1.229930e+00	1.227443e+00	1.222742e+00	1.224833e+00	1.225152e+00	1.207825e+00	1.231777e+00	1.235812e+00	1.236702e+00	1.201369e+00	1.235954e+00	1.234790e+00	1.225783e+00	1.227417e+00	1.232515e+00	1.229063e+00	1.211478e+00	1.215513e+00	1.217339e+00	1.220361e+00	1.224944e+00	1.227761e+00	1.224610e+00	1.230250e+00	1.228692e+00	1.229678e+00	1.195591e+00	1.226110e+00	1.223604e+00	1.226026e+00	1.224841e+00	1.213163e+00	1.207688e+00	1.214562e+00	1.215716e+00	1.216761e+00	1.218384e+00	1.220501e+00	1.225199e+00	1.228483e+00	1.235249e+00	1.236312e+00	1.226363e+00	1.232192e+00	1.230819e+00	1.234444e+00	1.233457e+00	1.223489e+00	1.229761e+00	1.202674e+00	1.236203e+00	1.226730e+00	1.226982e+00	1.223321e+00	1.223689e+00	1.231893e+00	1.226071e+00	1.229187e+00	1.236103e+00	1.235571e+00	1.233552e+00	1.233412e+00	1.235391e+00	1.193862e+00	1.205645e+00	1.208700e+00	1.209860e+00	1.211235e+00	1.212085e+00	1.212941e+00	1.213391e+00	1.224949e+00	1.224186e+00	1.223453e+00	1.222780e+00	1.214029e+00	1.214673e+00	1.224640e+00	1.225114e+00	1.226338e+00	1.234917e+00	1.229026e+00	1.227997e+00	1.215124e+00	1.215768e+00	1.216655e+00	1.217543e+00	1.231730e+00	1.211376e+00	1.218497e+00	1.220295e+00	1.235783e+00	1.221808e+00	1.221430e+00	1.230301e+00	1.228716e+00	1.192915e+00	1.198365e+00	1.204561e+00	1.189128e+00	1.227828e+00	1.234570e+00	1.234191e+00	1.233583e+00	1.224827e+00	1.219695e+00	1.234096e+00	1.224967e+00	1.226919e+00	1.226226e+00	1.228515e+00	1.220124e+00	1.235640e+00	1.235405e+00	1.231984e+00	1.235881e+00	1.232573e+00	1.225357e+00	1.224710e+00	1.225183e+00	1.231204e+00	1.221614e+00	1.226609e+00	1.206638e+00	1.236228e+00	1.207535e+00	1.233690e+00	1.228934e+00	1.225423e+00	1.224477e+00	1.225457e+00	1.232905e+00	1.195387e+00	1.231341e+00	1.208194e+00	1.231753e+00	1.236456e+00	1.234967e+00	1.234767e+00	1.232938e+00	1.233924e+00	1.224665e+00	1.224136e+00	1.209644e+00	1.210650e+00	1.220265e+00	1.221959e+00	1.222779e+00	1.230024e+00	1.200468e+00	1.235521e+00	1.231644e+00	1.223362e+00	1.224282e+00	1.231104e+00	1.213093e+00	1.215758e+00	1.208728e+00	1.235514e+00	1.234137e+00	1.240268e+00	1.237169e+00	1.229304e+00	1.234609e+00	1.225466e+00	1.234115e+00	1.223490e+00	1.211704e+00	1.235762e+00	1.212559e+00	1.185940e+00	1.215059e+00	1.221708e+00	1.227158e+00	1.223590e+00	1.220627e+00	1.220036e+00	1.228931e+00	1.212286e+00	1.224558e+00	1.185197e+00	1.225306e+00	1.225279e+00	1.210735e+00	1.226010e+00	1.222751e+00	1.212803e+00	1.217831e+00	1.218083e+00	1.219444e+00	1.208600e+00	1.203724e+00	1.212007e+00	1.209795e+00	1.213523e+00	1.219730e+00	1.214566e+00	1.227641e+00	1.215829e+00	1.230993e+00	1.213997e+00	1.221711e+00	1.235239e+00	1.190255e+00	1.234343e+00	1.215730e+00	1.216248e+00	1.216501e+00	1.219575e+00	1.224760e+00	1.218303e+00	1.211464e+00	1.224528e+00	1.232618e+00	1.222003e+00	1.225227e+00	1.231949e+00	1.224355e+00	1.212214e+00	1.213389e+00	1.212715e+00	1.214467e+00	1.191656e+00	1.196965e+00	1.218250e+00	1.205197e+00	1.217047e+00	1.234369e+00	1.236474e+00	1.200637e+00	1.204082e+00	1.227989e+00	1.214908e+00	1.235148e+00	1.226709e+00	1.232812e+00	1.233915e+00	1.218619e+00	1.218320e+00	1.224619e+00	1.222720e+00	1.202110e+00	1.228257e+00	1.184684e+00	1.209649e+00	1.211851e+00	1.229149e+00	1.233827e+00	1.235009e+00	1.187368e+00	1.228935e+00	1.235221e+00	1.232201e+00	1.220993e+00	1.213758e+00	1.234844e+00	1.225921e+00	1.218379e+00	1.218369e+00	1.235285e+00	1.232444e+00	1.233207e+00	1.233017e+00	1.224683e+00	1.234991e+00	1.228690e+00	1.229014e+00	1.225246e+00	1.224160e+00	1.224563e+00	1.230241e+00	1.234205e+00	1.231869e+00	1.231985e+00	1.221108e+00	1.213561e+00	1.211998e+00	1.215834e+00	1.218374e+00	1.224594e+00	1.224379e+00	1.233795e+00	1.231502e+00	1.230762e+00	1.226839e+00	1.227013e+00	1.226869e+00	1.225954e+00	1.206393e+00	1.224467e+00	1.229041e+00	1.233113e+00	1.218479e+00	1.233586e+00	1.224779e+00	1.236726e+00	1.218033e+00	1.205177e+00	1.235128e+00	1.227270e+00	1.235738e+00	1.235728e+00	1.222018e+00	1.236439e+00	1.235323e+00	1.216141e+00	1.234751e+00	1.219929e+00	1.204041e+00	1.235658e+00	1.232690e+00	1.236454e+00	1.210036e+00	1.235151e+00	1.225416e+00	1.221865e+00	1.209124e+00	1.222332e+00	1.226237e+00	1.231433e+00	1.223759e+00	1.209696e+00	1.208716e+00	1.226529e+00	1.226359e+00	1.205397e+00	1.207333e+00	1.225223e+00	1.221441e+00	1.224747e+00	1.234072e+00	1.224749e+00	1.224187e+00	1.233985e+00	1.220384e+00	1.216289e+00	1.192552e+00	1.200570e+00	1.220759e+00	1.214339e+00	1.219047e+00	1.210932e+00	1.225275e+00	1.230392e+00	1.236601e+00	1.217767e+00	1.225341e+00	1.234514e+00	1.229357e+00	1.225041e+00	1.225066e+00	1.215611e+00	1.215392e+00	1.223814e+00	1.231702e+00	1.225189e+00	1.221338e+00	1.223764e+00	1.226140e+00	1.218251e+00	1.236334e+00	1.223844e+00	1.234860e+00	1.215017e+00	1.224966e+00	1.231162e+00	1.216535e+00	1.205433e+00	1.234457e+00	1.225160e+00	1.224652e+00	1.217691e+00	1.233770e+00	1.233227e+00	1.180443e+00	1.234659e+00	1.229173e+00	1.210699e+00	1.213723e+00	1.233564e+00	1.232726e+00	1.222350e+00	1.221319e+00	1.222696e+00	1.226519e+00	1.211342e+00	1.225931e+00	1.225396e+00	1.225615e+00	1.213700e+00	1.183969e+00	1.185361e+00	1.207789e+00	1.236055e+00	1.233474e+00	1.211862e+00	1.210224e+00	1.22748