# vtk DataFile Version 3.0
vtk output
ASCII
DATASET UNSTRUCTURED_GRID
POINTS 7030 double
1.000000e+00	-2.000000e-04	0.0	1.000000e+00	-1.000000e-02	0.0	3.000000e+01	0.000000e+00	0.0	0.000000e+00	3.000000e+01	0.0	-3.000000e+01	0.000000e+00	0.0	0.000000e+00	-3.000000e+01	0.0	9.950827e-01	6.845700e-04	0.0	9.901756e-01	1.623945e-03	0.0	9.852661e-01	2.550967e-03	0.0	9.803543e-01	3.465804e-03	0.0	9.754388e-01	4.360157e-03	0.0	9.705158e-01	5.212720e-03	0.0	9.655892e-01	6.044226e-03	0.0	9.606617e-01	6.870151e-03	0.0	9.557326e-01	7.686670e-03	0.0	9.508016e-01	8.491205e-03	0.0	9.458683e-01	9.281614e-03	0.0	9.409324e-01	1.005581e-02	0.0	9.359948e-01	1.081901e-02	0.0	9.310570e-01	1.158159e-02	0.0	9.261185e-01	1.233861e-02	0.0	9.211784e-01	1.308574e-02	0.0	9.162363e-01	1.381944e-02	0.0	9.112918e-01	1.453680e-02	0.0	9.063447e-01	1.523538e-02	0.0	9.013946e-01	1.591313e-02	0.0	8.964418e-01	1.657035e-02	0.0	8.914870e-01	1.721302e-02	0.0	8.865307e-01	1.784348e-02	0.0	8.815731e-01	1.846319e-02	0.0	8.766142e-01	1.907318e-02	0.0	8.716542e-01	1.967419e-02	0.0	8.666932e-01	2.026672e-02	0.0	8.617313e-01	2.085107e-02	0.0	8.567684e-01	2.142735e-02	0.0	8.518045e-01	2.199553e-02	0.0	8.468397e-01	2.255531e-02	0.0	8.418740e-01	2.310636e-02	0.0	8.369072e-01	2.364863e-02	0.0	8.319395e-01	2.418212e-02	0.0	8.269709e-01	2.470683e-02	0.0	8.220014e-01	2.522274e-02	0.0	8.170309e-01	2.572985e-02	0.0	8.120596e-01	2.622816e-02	0.0	8.070874e-01	2.671766e-02	0.0	8.021143e-01	2.719834e-02	0.0	7.971404e-01	2.766989e-02	0.0	7.921654e-01	2.813116e-02	0.0	7.871896e-01	2.858256e-02	0.0	7.822130e-01	2.902467e-02	0.0	7.772356e-01	2.945805e-02	0.0	7.722574e-01	2.988330e-02	0.0	7.672787e-01	3.030100e-02	0.0	7.622993e-01	3.071174e-02	0.0	7.573195e-01	3.111609e-02	0.0	7.523391e-01	3.151465e-02	0.0	7.473584e-01	3.190745e-02	0.0	7.423769e-01	3.229212e-02	0.0	7.373949e-01	3.266880e-02	0.0	7.324123e-01	3.303810e-02	0.0	7.274292e-01	3.340059e-02	0.0	7.224457e-01	3.375686e-02	0.0	7.174618e-01	3.410751e-02	0.0	7.124775e-01	3.445311e-02	0.0	7.074929e-01	3.479427e-02	0.0	7.025081e-01	3.513157e-02	0.0	6.975230e-01	3.546546e-02	0.0	6.925376e-01	3.579536e-02	0.0	6.875520e-01	3.612085e-02	0.0	6.825661e-01	3.644164e-02	0.0	6.775798e-01	3.675743e-02	0.0	6.725932e-01	3.706793e-02	0.0	6.676063e-01	3.737283e-02	0.0	6.626190e-01	3.767185e-02	0.0	6.576313e-01	3.796467e-02	0.0	6.526433e-01	3.825101e-02	0.0	6.476548e-01	3.853056e-02	0.0	6.426660e-01	3.880333e-02	0.0	6.376769e-01	3.906958e-02	0.0	6.326874e-01	3.932962e-02	0.0	6.276976e-01	3.958373e-02	0.0	6.227076e-01	3.983223e-02	0.0	6.177172e-01	4.007539e-02	0.0	6.127267e-01	4.031352e-02	0.0	6.077359e-01	4.054691e-02	0.0	6.027449e-01	4.077587e-02	0.0	5.977537e-01	4.100096e-02	0.0	5.927624e-01	4.122404e-02	0.0	5.877710e-01	4.144439e-02	0.0	5.827795e-01	4.166082e-02	0.0	5.777877e-01	4.187215e-02	0.0	5.727957e-01	4.207718e-02	0.0	5.678033e-01	4.227472e-02	0.0	5.628106e-01	4.246357e-02	0.0	5.578176e-01	4.264253e-02	0.0	5.528242e-01	4.281041e-02	0.0	5.478303e-01	4.296515e-02	0.0	5.428359e-01	4.310054e-02	0.0	5.378411e-01	4.321899e-02	0.0	5.328459e-01	4.332468e-02	0.0	5.278506e-01	4.342181e-02	0.0	5.228552e-01	4.351455e-02	0.0	5.178598e-01	4.360709e-02	0.0	5.128645e-01	4.370362e-02	0.0	5.078694e-01	4.380833e-02	0.0	5.028745e-01	4.392540e-02	0.0	4.978800e-01	4.405898e-02	0.0	4.928861e-01	4.421016e-02	0.0	4.878925e-01	4.437489e-02	0.0	4.828993e-01	4.454869e-02	0.0	4.779062e-01	4.472708e-02	0.0	4.729132e-01	4.490558e-02	0.0	4.679200e-01	4.507973e-02	0.0	4.629264e-01	4.524503e-02	0.0	4.579325e-01	4.539702e-02	0.0	4.529381e-01	4.553120e-02	0.0	4.479431e-01	4.564384e-02	0.0	4.429478e-01	4.573922e-02	0.0	4.379522e-01	4.582060e-02	0.0	4.329564e-01	4.589006e-02	0.0	4.279605e-01	4.594969e-02	0.0	4.229645e-01	4.600160e-02	0.0	4.179685e-01	4.604787e-02	0.0	4.129724e-01	4.609060e-02	0.0	4.079763e-01	4.613188e-02	0.0	4.029803e-01	4.617381e-02	0.0	3.979842e-01	4.621805e-02	0.0	3.929882e-01	4.626185e-02	0.0	3.879921e-01	4.630380e-02	0.0	3.829960e-01	4.634332e-02	0.0	3.779999e-01	4.637980e-02	0.0	3.730037e-01	4.641265e-02	0.0	3.680076e-01	4.644127e-02	0.0	3.630114e-01	4.646505e-02	0.0	3.580151e-01	4.648340e-02	0.0	3.530189e-01	4.649573e-02	0.0	3.480227e-01	4.650159e-02	0.0	3.430264e-01	4.650211e-02	0.0	3.380302e-01	4.649764e-02	0.0	3.330339e-01	4.648818e-02	0.0	3.280377e-01	4.647373e-02	0.0	3.230415e-01	4.645428e-02	0.0	3.180453e-01	4.642984e-02	0.0	3.130491e-01	4.640041e-02	0.0	3.080530e-01	4.636599e-02	0.0	3.030569e-01	4.632658e-02	0.0	2.980608e-01	4.628239e-02	0.0	2.930648e-01	4.623526e-02	0.0	2.880688e-01	4.618489e-02	0.0	2.830729e-01	4.613037e-02	0.0	2.780770e-01	4.607082e-02	0.0	2.730812e-01	4.600534e-02	0.0	2.680854e-01	4.593302e-02	0.0	2.630898e-01	4.585297e-02	0.0	2.580944e-01	4.576430e-02	0.0	2.530991e-01	4.566610e-02	0.0	2.481040e-01	4.555785e-02	0.0	2.431091e-01	4.544244e-02	0.0	2.381143e-01	4.532022e-02	0.0	2.331198e-01	4.519059e-02	0.0	2.281254e-01	4.505297e-02	0.0	2.231313e-01	4.490674e-02	0.0	2.181375e-01	4.475132e-02	0.0	2.131439e-01	4.458611e-02	0.0	2.081508e-01	4.441052e-02	0.0	2.031580e-01	4.422395e-02	0.0	1.981657e-01	4.402589e-02	0.0	1.931738e-01	4.381706e-02	0.0	1.881823e-01	4.359826e-02	0.0	1.831913e-01	4.336993e-02	0.0	1.782007e-01	4.313227e-02	0.0	1.732106e-01	4.288527e-02	0.0	1.682209e-01	4.262873e-02	0.0	1.632318e-01	4.236220e-02	0.0	1.582432e-01	4.208495e-02	0.0	1.532554e-01	4.179586e-02	0.0	1.482683e-01	4.149348e-02	0.0	1.432820e-01	4.117838e-02	0.0	1.382966e-01	4.084913e-02	0.0	1.333123e-01	4.050341e-02	0.0	1.283294e-01	4.013883e-02	0.0	1.233480e-01	3.975309e-02	0.0	1.183686e-01	3.934414e-02	0.0	1.133912e-01	3.891040e-02	0.0	1.084161e-01	3.845058e-02	0.0	1.034439e-01	3.796137e-02	0.0	9.847461e-02	3.744312e-02	0.0	9.350833e-02	3.689676e-02	0.0	8.854521e-02	3.632247e-02	0.0	8.358548e-02	3.571949e-02	0.0	7.862958e-02	3.508591e-02	0.0	7.367829e-02	3.441721e-02	0.0	6.873463e-02	3.369443e-02	0.0	6.380040e-02	3.290983e-02	0.0	5.887631e-02	3.206396e-02	0.0	5.396220e-02	3.116184e-02	0.0	4.905632e-02	3.021592e-02	0.0	4.415475e-02	2.924792e-02	0.0	3.927502e-02	2.817640e-02	0.0	3.444786e-02	2.688957e-02	0.0	2.968645e-02	2.537724e-02	0.0	2.498142e-02	2.369681e-02	0.0	2.031304e-02	2.191690e-02	0.0	1.567738e-02	2.005346e-02	0.0	1.110239e-02	1.804753e-02	0.0	7.113796e-03	1.509349e-02	0.0	3.719649e-03	1.145621e-02	0.0	1.325793e-03	7.081219e-03	0.0	1.405332e-04	2.238431e-03	0.0	2.132051e-04	-2.740552e-03	0.0	1.521618e-03	-7.549239e-03	0.0	4.014177e-03	-1.186932e-02	0.0	7.513514e-03	-1.540602e-02	0.0	1.164430e-02	-1.821070e-02	0.0	1.606118e-02	-2.054277e-02	0.0	2.067540e-02	-2.245502e-02	0.0	2.538188e-02	-2.413104e-02	0.0	3.014686e-02	-2.563251e-02	0.0	3.496288e-02	-2.696172e-02	0.0	3.980689e-02	-2.818528e-02	0.0	4.467664e-02	-2.930199e-02	0.0	4.956894e-02	-3.031545e-02	0.0	5.447538e-02	-3.125848e-02	0.0	5.939048e-02	-3.215514e-02	0.0	6.431565e-02	-3.299474e-02	0.0	6.925090e-02	-3.377285e-02	0.0	7.419549e-02	-3.448925e-02	0.0	7.914736e-02	-3.515366e-02	0.0	8.410369e-02	-3.578390e-02	0.0	8.906379e-02	-3.638381e-02	0.0	9.402725e-02	-3.695517e-02	0.0	9.899386e-02	-3.749861e-02	0.0	1.039635e-01	-3.801389e-02	0.0	1.089360e-01	-3.849997e-02	0.0	1.139113e-01	-3.895693e-02	0.0	1.188889e-01	-3.938802e-02	0.0	1.238686e-01	-3.979446e-02	0.0	1.288501e-01	-4.017789e-02	0.0	1.338332e-01	-4.054039e-02	0.0	1.388176e-01	-4.088428e-02	0.0	1.438031e-01	-4.121193e-02	0.0	1.487895e-01	-4.152569e-02	0.0	1.537766e-01	-4.182667e-02	0.0	1.587646e-01	-4.211446e-02	0.0	1.637532e-01	-4.239054e-02	0.0	1.687424e-01	-4.265600e-02	0.0	1.737321e-01	-4.291153e-02	0.0	1.787223e-01	-4.315754e-02	0.0	1.837130e-01	-4.339423e-02	0.0	1.887040e-01	-4.362158e-02	0.0	1.936955e-01	-4.383936e-02	0.0	1.986875e-01	-4.404712e-02	0.0	2.036798e-01	-4.424398e-02	0.0	2.086726e-01	-4.442938e-02	0.0	2.136658e-01	-4.460385e-02	0.0	2.186594e-01	-4.476801e-02	0.0	2.236532e-01	-4.492244e-02	0.0	2.286474e-01	-4.506774e-02	0.0	2.336418e-01	-4.520451e-02	0.0	2.386364e-01	-4.533333e-02	0.0	2.436311e-01	-4.545481e-02	0.0	2.486261e-01	-4.556954e-02	0.0	2.536212e-01	-4.567684e-02	0.0	2.586165e-01	-4.577400e-02	0.0	2.636119e-01	-4.586173e-02	0.0	2.686076e-01	-4.594092e-02	0.0	2.736033e-01	-4.601249e-02	0.0	2.785991e-01	-4.607731e-02	0.0	2.835950e-01	-4.613629e-02	0.0	2.885910e-01	-4.619033e-02	0.0	2.935870e-01	-4.624032e-02	0.0	2.985830e-01	-4.628716e-02	0.0	3.035791e-01	-4.633093e-02	0.0	3.085752e-01	-4.636982e-02	0.0	3.135713e-01	-4.640372e-02	0.0	3.185675e-01	-4.643263e-02	0.0	3.235637e-01	-4.645655e-02	0.0	3.285599e-01	-4.647547e-02	0.0	3.335561e-01	-4.648940e-02	0.0	3.385524e-01	-4.649834e-02	0.0	3.435486e-01	-4.650229e-02	0.0	3.485449e-01	-4.650124e-02	0.0	3.535411e-01	-4.649497e-02	0.0	3.585373e-01	-4.648297e-02	0.0	3.635336e-01	-4.646548e-02	0.0	3.685298e-01	-4.644281e-02	0.0	3.735259e-01	-4.641527e-02	0.0	3.785221e-01	-4.638314e-02	0.0	3.835182e-01	-4.634673e-02	0.0	3.885143e-01	-4.630634e-02	0.0	3.935103e-01	-4.626226e-02	0.0	3.985064e-01	-4.621480e-02	0.0	4.035024e-01	-4.616422e-02	0.0	4.084983e-01	-4.611044e-02	0.0	4.134942e-01	-4.605315e-02	0.0	4.184901e-01	-4.599206e-02	0.0	4.234859e-01	-4.592686e-02	0.0	4.284817e-01	-4.585727e-02	0.0	4.334774e-01	-4.578297e-02	0.0	4.384730e-01	-4.570368e-02	0.0	4.434686e-01	-4.561909e-02	0.0	4.484640e-01	-4.552890e-02	0.0	4.534593e-01	-4.543374e-02	0.0	4.584546e-01	-4.533578e-02	0.0	4.634499e-01	-4.523430e-02	0.0	4.684450e-01	-4.512841e-02	0.0	4.734400e-01	-4.501721e-02	0.0	4.784349e-01	-4.489981e-02	0.0	4.834296e-01	-4.477531e-02	0.0	4.884241e-01	-4.464281e-02	0.0	4.934183e-01	-4.450143e-02	0.0	4.984123e-01	-4.435026e-02	0.0	5.034060e-01	-4.419045e-02	0.0	5.083995e-01	-4.402697e-02	0.0	5.133929e-01	-4.385849e-02	0.0	5.183861e-01	-4.368321e-02	0.0	5.233790e-01	-4.349934e-02	0.0	5.283715e-01	-4.330511e-02	0.0	5.333634e-01	-4.309872e-02	0.0	5.383548e-01	-4.287839e-02	0.0	5.433455e-01	-4.264234e-02	0.0	5.483353e-01	-4.238880e-02	0.0	5.533243e-01	-4.211946e-02	0.0	5.583129e-01	-4.184328e-02	0.0	5.633010e-01	-4.155818e-02	0.0	5.682884e-01	-4.126120e-02	0.0	5.732749e-
[...]
POINT_DATA 7030

SCALARS Density double 1
LOOKUP_TABLE default
1.159177e+00	1.164516e+00	1.224686e+00	1.224880e+00	1.225008e+00	1.225087e+00	1.221065e+00	1.217470e+00	1.216158e+00	1.215115e+00	1.214831e+00	1.214981e+00	1.214638e+00	1.214066e+00	1.213566e+00	1.213205e+00	1.212973e+00	1.212901e+00	1.212558e+00	1.211918e+00	1.211445e+00	1.211049e+00	1.210667e+00	1.210456e+00	1.210286e+00	1.210322e+00	1.210293e+00	1.210265e+00	1.210171e+00	1.210079e+00	1.209925e+00	1.209794e+00	1.209664e+00	1.209520e+00	1.209375e+00	1.209251e+00	1.209095e+00	1.208956e+00	1.208843e+00	1.208690e+00	1.208540e+00	1.208440e+00	1.208331e+00	1.208240e+00	1.208155e+00	1.208031e+00	1.207964e+00	1.207919e+00	1.207861e+00	1.207826e+00	1.207794e+00	1.207773e+00	1.207802e+00	1.207655e+00	1.207593e+00	1.207521e+00	1.207479e+00	1.207454e+00	1.207440e+00	1.207428e+00	1.207429e+00	1.207385e+00	1.207349e+00	1.207344e+00	1.207303e+00	1.207207e+00	1.207111e+00	1.207013e+00	1.206900e+00	1.206776e+00	1.206716e+00	1.206660e+00	1.206579e+00	1.206490e+00	1.206381e+00	1.206454e+00	1.206371e+00	1.206296e+00	1.206299e+00	1.206271e+00	1.206254e+00	1.206213e+00	1.206181e+00	1.206139e+00	1.206067e+00	1.206042e+00	1.205948e+00	1.205826e+00	1.205709e+00	1.205543e+00	1.205380e+00	1.205258e+00	1.205146e+00	1.205031e+00	1.204959e+00	1.204961e+00	1.205103e+00	1.205477e+00	1.205825e+00	1.206195e+00	1.206509e+00	1.206827e+00	1.207007e+00	1.207168e+00	1.207290e+00	1.207167e+00	1.206839e+00	1.206385e+00	1.205855e+00	1.205401e+00	1.204906e+00	1.204393e+00	1.204021e+00	1.203712e+00	1.203518e+00	1.203530e+00	1.203654e+00	1.203767e+00	1.203877e+00	1.204013e+00	1.204189e+00	1.204324e+00	1.204364e+00	1.204413e+00	1.204417e+00	1.204277e+00	1.204110e+00	1.204022e+00	1.203915e+00	1.203771e+00	1.203669e+00	1.203563e+00	1.203450e+00	1.203321e+00	1.203250e+00	1.203174e+00	1.203133e+00	1.203037e+00	1.202959e+00	1.202832e+00	1.202730e+00	1.202616e+00	1.202518e+00	1.202370e+00	1.202305e+00	1.202215e+00	1.202043e+00	1.201850e+00	1.201667e+00	1.201426e+00	1.201243e+00	1.201096e+00	1.200859e+00	1.200679e+00	1.200512e+00	1.200446e+00	1.200295e+00	1.200163e+00	1.199957e+00	1.199789e+00	1.199584e+00	1.199376e+00	1.199241e+00	1.199050e+00	1.198985e+00	1.198958e+00	1.198851e+00	1.198639e+00	1.198406e+00	1.198281e+00	1.198067e+00	1.197930e+00	1.197711e+00	1.197279e+00	1.196905e+00	1.196703e+00	1.196365e+00	1.196066e+00	1.195653e+00	1.195311e+00	1.194877e+00	1.194559e+00	1.194075e+00	1.193828e+00	1.193415e+00	1.193116e+00	1.193022e+00	1.192668e+00	1.192316e+00	1.191706e+00	1.191024e+00	1.190079e+00	1.189598e+00	1.190011e+00	1.190230e+00	1.190109e+00	1.187894e+00	1.185348e+00	1.186161e+00	1.190515e+00	1.194307e+00	1.196779e+00	1.195908e+00	1.191902e+00	1.206259e+00	1.232752e+00	1.261236e+00	1.280343e+00	1.286177e+00	1.290549e+00	1.287491e+00	1.267707e+00	1.247604e+00	1.228954e+00	1.218802e+00	1.211431e+00	1.208953e+00	1.207016e+00	1.206228e+00	1.205474e+00	1.204939e+00	1.204757e+00	1.204610e+00	1.204977e+00	1.204750e+00	1.204253e+00	1.204277e+00	1.204433e+00	1.205082e+00	1.205242e+00	1.205462e+00	1.205496e+00	1.205662e+00	1.205660e+00	1.205786e+00	1.205840e+00	1.206030e+00	1.206188e+00	1.206475e+00	1.206649e+00	1.206937e+00	1.207152e+00	1.207339e+00	1.207416e+00	1.207660e+00	1.207952e+00	1.208080e+00	1.208309e+00	1.208534e+00	1.208659e+00	1.208681e+00	1.208675e+00	1.208759e+00	1.208769e+00	1.208871e+00	1.208946e+00	1.209106e+00	1.209182e+00	1.209347e+00	1.209428e+00	1.209565e+00	1.209657e+00	1.209737e+00	1.209730e+00	1.209823e+00	1.209916e+00	1.210070e+00	1.210229e+00	1.210344e+00	1.210497e+00	1.210619e+00	1.210769e+00	1.210825e+00	1.210887e+00	1.210920e+00	1.210993e+00	1.211025e+00	1.211133e+00	1.211169e+00	1.211181e+00	1.211245e+00	1.211267e+00	1.211314e+00	1.211330e+00	1.211392e+00	1.211470e+00	1.211561e+00	1.211680e+00	1.211773e+00	1.211838e+00	1.211890e+00	1.211979e+00	1.212008e+00	1.212057e+00	1.212103e+00	1.212096e+00	1.212102e+00	1.212099e+00	1.212095e+00	1.212079e+00	1.212085e+00	1.212085e+00	1.212140e+00	1.212162e+00	1.212134e+00	1.212124e+00	1.212084e+00	1.212011e+00	1.211958e+00	1.211885e+00	1.211770e+00	1.211704e+00	1.211738e+00	1.211793e+00	1.211765e+00	1.211678e+00	1.211560e+00	1.211391e+00	1.211258e+00	1.211107e+00	1.210995e+00	1.210929e+00	1.210970e+00	1.211129e+00	1.211097e+00	1.211003e+00	1.210836e+00	1.210711e+00	1.210520e+00	1.210329e+00	1.210231e+00	1.210039e+00	1.210240e+00	1.210528e+00	1.210677e+00	1.210753e+00	1.210903e+00	1.210913e+00	1.211048e+00	1.211289e+00	1.211592e+00	1.211275e+00	1.211450e+00	1.211517e+00	1.212199e+00	1.213144e+00	1.214245e+00	1.215504e+00	1.216692e+00	1.217875e+00	1.219289e+00	1.220554e+00	1.221324e+00	1.221677e+00	1.222114e+00	1.222674e+00	1.223190e+00	1.223696e+00	1.224264e+00	1.224910e+00	1.225390e+00	1.225882e+00	1.226338e+00	1.226722e+00	1.227083e+00	1.227388e+00	1.227712e+00	1.228117e+00	1.228547e+00	1.228812e+00	1.229164e+00	1.229459e+00	1.229706e+00	1.229883e+00	1.230159e+00	1.230471e+00	1.230797e+00	1.231177e+00	1.231578e+00	1.231825e+00	1.232066e+00	1.232482e+00	1.232765e+00	1.233011e+00	1.233145e+00	1.233289e+00	1.233465e+00	1.233645e+00	1.233931e+00	1.234194e+00	1.234336e+00	1.234600e+00	1.234953e+00	1.235322e+00	1.235617e+00	1.235835e+00	1.236154e+00	1.236415e+00	1.236458e+00	1.236437e+00	1.236758e+00	1.237576e+00	1.237959e+00	1.237855e+00	1.237163e+00	1.235987e+00	1.234951e+00	1.235714e+00	1.236272e+00	1.235289e+00	1.235151e+00	1.239167e+00	1.089078e+00	1.224700e+00	1.224771e+00	1.224831e+00	1.224866e+00	1.224882e+00	1.224889e+00	1.224888e+00	1.224886e+00	1.224885e+00	1.224884e+00	1.224882e+00	1.224880e+00	1.224879e+00	1.224878e+00	1.224878e+00	1.224881e+00	1.224886e+00	1.224893e+00	1.224901e+00	1.224911e+00	1.224919e+00	1.224929e+00	1.224938e+00	1.224946e+00	1.224956e+00	1.224966e+00	1.224974e+00	1.224983e+00	1.224992e+00	1.225001e+00	1.225016e+00	1.225023e+00	1.225031e+00	1.225038e+00	1.225045e+00	1.225053e+00	1.225059e+00	1.225065e+00	1.225071e+00	1.225076e+00	1.225081e+00	1.225083e+00	1.225086e+00	1.225088e+00	1.225088e+00	1.225083e+00	1.225079e+00	1.225075e+00	1.225071e+00	1.225065e+00	1.225059e+00	1.225053e+00	1.225046e+00	1.225037e+00	1.225026e+00	1.225007e+00	1.224989e+00	1.224942e+00	1.224868e+00	1.224752e+00	1.225121e+00	1.224784e+00	1.225238e+00	1.224592e+00	1.225451e+00	1.224158e+00	1.225719e+00	1.223101e+00	1.226069e+00	1.222080e+00	1.224647e+00	1.225150e+00	1.227380e+00	1.222913e+00	1.224947e+00	1.225696e+00	1.225963e+00	1.224828e+00	1.220993e+00	1.224669e+00	1.223898e+00	1.226550e+00	1.226854e+00	1.218747e+00	1.218249e+00	1.222741e+00	1.224648e+00	1.224739e+00	1.222349e+00	1.224928e+00	1.229369e+00	1.215602e+00	1.215942e+00	1.219647e+00	1.214269e+00	1.217129e+00	1.224165e+00	1.227751e+00	1.229355e+00	1.223550e+00	1.220665e+00	1.221406e+00	1.223868e+00	1.230900e+00	1.233452e+00	1.226118e+00	1.215767e+00	1.219559e+00	1.217486e+00	1.222947e+00	1.224230e+00	1.219912e+00	1.212444e+00	1.213038e+00	1.220472e+00	1.225261e+00	1.212692e+00	1.212118e+00	1.230717e+00	1.228013e+00	1.212750e+00	1.210738e+00	1.218808e+00	1.218708e+00	1.225637e+00	1.223457e+00	1.231127e+00	1.226904e+00	1.212380e+00	1.220283e+00	1.219410e+00	1.217918e+00	1.217301e+00	1.219431e+00	1.223031e+00	1.225062e+00	1.209149e+00	1.210613e+00	1.212310e+00	1.213532e+00	1.225310e+00	1.225132e+00	1.209280e+00	1.224995e+00	1.225308e+00	1.224900e+00	1.224109e+00	1.216668e+00	1.216677e+00	1.209908e+00	1.209678e+00	1.230381e+00	1.230056e+00	1.232056e+00	1.214792e+00	1.217681e+00	1.221885e+00	1.207599e+00	1.209615e+00	1.207970e+00	1.224559e+00	1.224270e+00	1.224850e+00	1.206996e+00	1.207138e+00	1.224829e+00	1.209737e+00	1.225589e+00	1.241381e+00	1.233800e+00	1.226460e+00	1.228164e+00	1.227432e+00	1.232861e+00	1.216426e+00	1.215715e+00	1.206836e+00	1.210019e+00	1.225696e+00	1.225661e+00	1.225450e+00	1.225066e+00	1.210430e+00	1.230029e+00	1.215659e+00	1.216344e+00	1.207825e+00	1.208216e+00	1.214811e+00	1.224919e+00	1.215168e+00	1.219046e+00	1.225103e+00	1.224685e+00	1.224796e+00	1.219694e+00	1.236180e+00	1.218589e+00	1.224736e+00	1.225241e+00	1.205643e+00	1.219468e+00	1.225295e+00	1.205289e+00	1.222272e+00	1.214380e+00	1.225021e+00	1.211026e+00	1.217590e+00	1.224458e+00	1.225478e+00	1.214919e+00	1.232637e+00	1.215060e+00	1.223349e+00	1.223150e+00	1.206791e+00	1.231640e+00	1.224042e+00	1.216065e+00	1.214759e+00	1.212384e+00	1.208093e+00	1.225838e+00	1.207693e+00	1.229859e+00	1.209153e+00	1.209899e+00	1.224870e+00	1.223500e+00	1.225176e+00	1.225613e+00	1.225599e+00	1.245180e+00	1.213942e+00	1.218376e+00	1.211079e+00	1.218105e+00	1.214183e+00	1.216012e+00	1.221767e+00	1.224455e+00	1.225100e+00	1.223862e+00	1.208123e+00	1.226046e+00	1.223316e+00	1.225128e+00	1.224850e+00	1.225194e+00	1.225107e+00	1.225051e+00	1.224816e+00	1.226749e+00	1.225072e+00	1.226626e+00	1.206161e+00	1.225100e+00	1.220445e+00	1.205749e+00	1.233336e+00	1.225068e+00	1.213806e+00	1.213650e+00	1.208142e+00	1.203655e+00	1.207368e+00	1.214018e+00	1.220972e+00	1.212917e+00	1.205600e+00	1.225184e+00	1.226275e+00	1.221741e+00	1.213247e+00	1.212285e+00	1.226564e+00	1.224538e+00	1.225114e+00	1.232795e+00	1.203387e+00	1.224910e+00	1.221950e+00	1.225011e+00	1.224415e+00	1.226392e+00	1.213373e+00	1.215344e+00	1.217145e+00	1.229228e+00	1.215665e+00	1.223226e+00	1.221085e+00	1.225029e+00	1.225322e+00	1.225085e+00	1.224736e+00	1.226046e+00	1.213384e+00	1.223813e+00	1.225471e+00	1.202601e+00	1.202148e+00	1.226664e+00	1.206537e+00	1.214888e+00	1.224920e+00	1.217122e+00	1.220499e+00	1.225021e+00	1.225486e+00	1.225712e+00	1.223575e+00	1.221505e+00	1.212568e+00	1.212541e+00	1.225874e+00	1.220116e+00	1.219022e+00	1.231550e+00	1.202522e+00	1.216047e+00	1.212978e+00	1.224952e+00	1.213693e+00	1.212933e+00	1.224728e+00	1.204368e+00	1.237484e+00	1.254424e+00	1.225091e+00	1.220586e+00	1.224705e+00	1.225563e+00	1.212373e+00	1.228903e+00	1.226399e+00	1.225634e+00	1.231017e+00	1.212347e+00	1.207368e+00	1.209291e+00	1.208595e+00	1.222302e+00	1.208096e+00	1.225937e+00	1.207209e+00	1.224846e+00	1.213085e+00	1.224320e+00	1.224539e+00	1.234339e+00	1.225169e+00	1.205538e+00	1.227008e+00	1.231781e+00	1.210818e+00	1.212926e+00	1.224805e+00	1.213203e+00	1.213056e+00	1.204213e+00	1.212325e+00	1.229032e+00	1.228158e+00	1.229603e+00	1.217451e+00	1.207723e+00	1.208664e+00	1.218987e+00	1.223047e+00	1.209532e+00	1.224806e+00	1.222531e+00	1.225801e+00	1.212235e+00	1.206693e+00	1.228429e+00	1.227425e+00	1.211938e+00	1.215345e+00	1.214506e+00	1.212549e+00	1.214593e+00	1.224438e+00	1.219940e+00	1.225315e+00	1.223717e+00	1.200288e+00	1.203229e+00	1.225447e+00	1.225445e+00	1.222066e+00	1.230400e+00	1.216277e+00	1.224684e+00	1.225527e+00	1.225593e+00	1.217096e+00	1.224863e+00	1.218569e+00	1.224906e+00	1.210651e+00	1.213230e+00	1.221546e+00	1.221211e+00	1.212221e+00	1.225168e+00	1.224455e+00	1.217450e+00	1.225080e+00	1.224993e+00	1.200587e+00	1.214521e+00	1.227876e+00	1.223140e+00	1.224459e+00	1.227225e+00	1.216388e+00	1.224837e+00	1.222863e+00	1.206585e+00	1.224729e+00	1.225765e+00	1.224948e+00	1.222945e+00	1.226119e+00	1.224848e+00	1.225132e+00	1.224716e+00	1.210615e+00	1.225191e+00	1.213309e+00	1.207621e+00	1.225089e+00	1.227761e+00	1.205207e+00	1.201860e+00	1.228889e+00	1.224860e+00	1.224570e+00	1.225233e+00	1.234359e+00	1.218176e+00	1.217506e+00	1.219108e+00	1.221629e+00	1.224743e+00	1.213195e+00	1.219260e+00	1.206434e+00	1.213091e+00	1.206798e+00	1.225415e+00	1.208837e+00	1.217965e+00	1.225432e+00	1.212328e+00	1.210836e+00	1.211252e+00	1.224062e+00	1.204889e+00	1.226063e+00	1.225125e+00	1.224664e+00	1.213205e+00	1.232545e+00	1.220097e+00	1.211014e+00	1.202253e+00	1.225015e+00	1.213442e+00	1.223479e+00	1.223775e+00	1.220477e+00	1.205869e+00	1.212451e+00	1.226505e+00	1.212245e+00	1.203164e+00	1.225237e+00	1.214615e+00	1.211855e+00	1.226646e+00	1.211381e+00	1.225028e+00	1.225707e+00	1.220526e+00	1.213834e+00	1.227487e+00	1.225160e+00	1.229814e+00	1.207261e+00	1.206917e+00	1.225473e+00	1.208018e+00	1.208750e+00	1.214226e+00	1.224777e+00	1.205174e+00	1.224999e+00	1.219121e+00	1.200675e+00	1.219484e+00	1.212724e+00	1.210163e+00	1.217225e+00	1.225101e+00	1.204386e+00	1.216941e+00	1.225312e+00	1.209853e+00	1.228213e+00	1.226949e+00	1.225566e+00	1.225244e+00	1.212311e+00	1.222697e+00	1.234758e+00	1.213631e+00	1.231116e+00	1.210254e+00	1.260985e+00	1.210173e+00	1.225345e+00	1.221588e+00	1.204011e+00	1.228988e+00	1.225021e+00	1.220044e+00	1.212657e+00	1.226048e+00	1.225053e+00	1.224863e+00	1.211341e+00	1.224844e+00	1.225283e+00	1.231978e+00	1.241827e+00	1.224393e+00	1.229482e+00	1.221242e+00	1.212920e+00	1.220220e+00	1.224623e+00	1.226037e+00	1.202101e+00	1.212161e+00	1.233780e+00	1.211784e+00	1.225104e+00	1.217532e+00	1.233944e+00	1.224893e+00	1.222491e+00	1.208827e+00	1.210906e+00	1.224843e+00	1.214113e+00	1.224039e+00	1.225092e+00	1.206800e+00	1.224612e+00	1.216554e+00	1.223677e+00	1.220086e+00	1.225041e+00	1.221092e+00	1.221763e+00	1.211016e+00	1.222211e+00	1.220474e+00	1.211894e+00	1.225108e+00	1.223925e+00	1.222537e+00	1.215414e+00	1.219148e+00	1.224812e+00	1.225066e+00	1.208909e+00	1.200489e+00	1.198732e+00	1.227328e+00	1.228458e+00	1.211863e+00	1.224755e+00	1.214451e+00	1.209037e+00	1.210814e+00	1.225102e+00	1.223036e+00	1.210962e+00	1.225972e+00	1.218204e+00	1.224970e+00	1.224499e+00	1.217582e+00	1.221101e+00	1.224571e+00	1.214631e+00	1.224119e+00	1.225773e+00	1.216977e+00	1.217865e+00	1.216763e+00	1.216547e+00	1.228293e+00	1.226176e+00	1.225193e+00	1.208201e+00	1.222881e+00	1.231996e+00	1.226749e+00	1.224842e+00	1.224952e+00	1.224835e+00	1.219467e+00	1.226596e+00	1.224978e+00	1.226521e+00	1.224763e+00	1.210025e+00	1.225229e+00	1.210003e+00	1.234366e+00	1.215411e+00	1.225115e+00	1.225634e+00	1.223696e+00	1.224235e+00	1.217564e+00	1.224866e+00	1.232550e+00	1.224885e+00	1.227069e+00	1.227494e+00	1.225916e+00	1.222058e+00	1.224978e+00	1.225894e+00	1.225050e+00	1.212801e+00	1.212246e+00	1.222825e+00	1.197900e+00	1.223099e+00	1.208361e+00	1.211293e+00	1.225727e+00	1.224247e+00	1.225150e+00	1.224683e+00	1.225361e+00	1.224830e+00	1.223902e+00	1.213970e+00	1.220968e+00	1.225408e+00	1.210110e+00	1.213782e+00	1.220893e+00	1.223359e+00	1.225277e+00	1.225824e+00	1.212371e+00	1.207962e+00	1.230707e+00	1.217460e+00	1.223669e+00	1.225088e+00	1.209735e+00	1.224794e+00	1.211581e+00	1.224680e+00	1.224750e+00	1.210663e+00	1.219853e+00	1.210943e+00	1.197863e+00	1.230643e+00	1.227209e+00	1.225149e+00	1.225142e+00	1.215839e+00	1.224376e+00	1.224840e+00	1.222142e+00	1.219912e+00	1.206260e+00	1.222916e+00	1.225697e+00	1.225452e+00	1.201077e+00	1.224790e+00	1.218312e+00	1.212526e+00	1.215229e+00	1.223695e+00	1.211075e+00	1.212605e+00	1.224168e+00	1.230187e+00	1.223192e+00	1.204983e+00	1.207604e+00	1.225260e+00	1.211340e+00	1.219751e+00	1.223537e+00	1.230065e+00	1.225724e+00	1.205582e+00	1.212650e+00	1.231338e+00	1.217460e+00	1.225331e+00	1.224139e+00	1.203217e+00	1.224128e+00	1.218845e+00	1.231317e+00	1.225095e+00	1.219330e+00	1.212384e+00	1.216171e+00	1.208295e+00	1.226161e+00	1.216544e+00	1.223903e+00	1.224857e+00	1.216220e+00	1.218564e+00	1.223131e+00	1.221839e+00	1.224926e+00	1.226931e+00	1.229689e+00	1.211234e+00	1.229281e+00	1.220517e+00	1.208105e+00	1.223382e+00	1.208354e+00	1.221169e+00	1.208824e+00	1.219368e+00	1.206708e+00	1.204241e+00	1.224452e+00	1.224221e+00	1.216316e+00	1.196761e+00	1.215838e+00	1.225094e+00	1.225125e+00	1.221180e+00	1.207760e+00	1.209963e+00	1.205751e+00	1.224543e+00	1.211166e+00	1.225059e+00	1.221338e+00	1.225079e+00	1.217365e+00	1.227074e+00	1.226916e+00	1.227601e+00	1.213625e+00	1.224123e+00	1.220480e+00	1.221114e+00	1.216505e+00	1.225400e+00	1.224990e+00	1.224497e+00	1.225085e+00	1.225186e+00	1.231502e+00	1.224763e+00	1.224892e+00	1.226633e+00	1.233343e+00	1.204717e+00	1.229671e+00	1.211979e+00	1.204808e+00	1.226957e+00	1.209951e+00	1.210434e+00	1.225599e+00	1.221156e+00	1.212106e+00	1.200038e+00	1.225343e+00	1.211973e+00	1.207051e+00	1.225912e+00	1.207395e+00	1.217394e+00	1.234435e+00	1.228430e+00	1.212117e+00	1.225048e+00	1.225531e+00	1.221922e+00	1.212300e+00	1.209907e+00	1.215742e+00	1.224313e+00	1.224643e+00	1.225209e+00	1.199389e+00	1.215541e+00	1.205857e+00	1.225091e+00	1.235055e+00	1.224253e+00	1.212616e+00	1.206423e+00	1.228715e+00	1.216672e+00	1.219123e+00	1.224828e+00	1.226350e+00	1.224935e+00	1.225076e+00	1.217416e+00	1.224870e+00	1.224412e+00	1.199360e+00	1.216924e+00	1.216223e+00	1.222295e+00	1.224879e+00	1.207415e+00	1.212064e+00	1.212469e+00	1.208273e+00	1.209819e+00	1.220815e+00	1.224807e+00	1.225819e+00	1.232011e+00	1.225154e+00	1.225812e+00	1.225949e+00	1.216445e+00	1.224819e+00	1.214134e+00	1.209197e+00	1.218514e+00	1.221650e+00	1.225418e+00	1.222632e+00	1.223091e+00	1.225167e+00	1.202211e+00	1.224834e+00	1.204986e+00	1.223920e+00	1.202911e+00	1.214219e+00	1.224682e+00	1.225618e+00	1.225011e+00	1.224937e+00	1.224867e+00	1.219012e+00	1.225076e+00	1.225164e+00	1.206708e+00	1.222921e+00	1.206571e+00	1.209203e+00	1.231338e+00	1.229404e+00	1.208610e+00	1.223563e+00	1.214503e+00	1.208565e+00	1.224866e+00	1.207586e+00	1.206275e+00	1.214089e+00	1.212462e+00	1.225805e+00	1.225674e+00	1.208700e+00	1.225555e+00	1.225016e+00	1.206744e+00	1.225601e+00	1.225040e+00	1.230783e+00	1.212247e+00	1.209009e+00	1.215174e+00	1.216113e+00	1.215353e+00	1.224854e+00	1.221842e+00	1.211336e+00	1.207230e+00	1.228998e+00	1.230643e+00	1.224189e+00	1.224819e+00	1.224083e+00	1.210433e+00	1.221724e+00	1.225045e+00	1.227235e+00	1.213451e+00	1.211771e+00	1.208003e+00	1.233204e+00	1.231182e+00	1.208153e+00	1.224770e+00	1.232669e+00	1.220799e+00	1.224965e+00	1.207902e+00	1.221824e+00	1.225752e+00	1.213839e+00	1.220928e+00	1.225588e+00	1.211576e+00	1.210208e+00	1.215717e+00	1.219701e+00	1.231942e+00	1.208819e+00	1.221286e+00	1.221487e+00	1.231713e+00	1.214647e+00	1.214920e+00	1.224751e+00	1.201839e+00	1.225111e+00	1.206557e+00	1.225184e+00	1.218425e+00	1.225135e+00	1.228555e+00	1.253540e+00	1.224782e+00	1.235410e+00	1.211275e+00	1.214274e+00	1.212494e+00	1.212521e+00	1.204578e+00	1.218309e+00	1.228335e+00	1.222298e+00	1.214751e+00	1.219957e+00	1.222185e+00	1.230247e+00	1.225696e+00	1.226050e+00	1.213492e+00	1.224161e+00	1.220175e+00	1.219020e+00	1.210538e+00	1.224325e+00	1.218285e+00	1.210902e+00	1.209705e+00	1.222461e+00	1.225147e+00	1.207584e+00	1.212458e+00	1.224374e+00	1.225721e+00	1.217960e+00	1.212270e+00	1.213394e+00	1.219902e+00	1.224017e+00	1.224848e+00	1.225204e+00	1.203379e+00	1.205941e+00	1.196846e+00	1.224156e+00	1.211172e+00	1.223139e+00	1.200207e+00	1.200553e+00	1.233842e+00	1.225272e+00	1.227061e+00	1.220337e+00	1.209835e+00	1.223043e+00	1.211591e+00	1.220457e+00	1.212139e+00	1.212834e+00	1.225701e+00	1.208330e+00	1.208486e+00	1.209582e+00	1.207879e+00	1.222032e+00	1.223611e+00	1.207706e+00	1.209355e+00	1.225032e+00	1.214435e+00	1.225233e+00	1.224970e+00	1.223174e+00	1.209772e+00	1.227582e+00	1.211952e+00	1.224134e+00	1.224650e+00	1.223456e+00	1.221821e+00	1.206723e+00	1.226721e+00	1.215234e+00	1.227697e+00	1.224828e+00	1.229113e+00	1.224991e+00	1.212455e+00	1.216048e+00	1.228717e+00	1.233678e+00	1.222272e+00	1.218333e+00	1.208875e+00	1.225066e+00	1.221571e+00	1.233224e+00	1.216121e+00	1.212067e+00	1.217364e+00	1.225326e+00	1.198169e+00	1.206183e+00	1.223479e+00	1.225370e+00	1.224873e+00	1.222859e+00	1.225015e+00	1.195179e+00	1.228675e+00	1.208787e+00	1.211702e+00	1.218545e+00	1.224742e+00	1.225639e+00	1.225476e+00	1.210096e+00	1.208044e+00	1.206430e+00	1.224841e+00	1.215474e+00	1.224921e+00	1.210776e+00	1.224870e+00	1.217593e+00	1.217506e+00	1.196916e+00	1.224514e+00	1.205740e+00	1.205377e+00	1.220185e+00	1.207876e+00	1.225112e+00	1.215776e+00	1.238191e+00	1.225389e+00	1.224053e+00	1.196348e+00	1.225358e+00	1.225854e+00	1.215149e+00	1.224451e+00	1.222252e+00	1.213406e+00	1.215793e+00	1.213228e+00	1.225019e+00	1.221910e+00	1.229603e+00	1.227117e+00	1.226311e+00	1.227916e+00	1.212290e+00	1.212347e+00	1.228942e+00	1.226169e+00	1.212877e+00	1.224965e+00	1.235048e+00	1.221808e+00	1.225470e+00	1.214136e+00	1.225748e+00	1.225112e+00	1.229350e+00	1.225599e+00	1.223915e+00	1.215202e+00	1.217488e+00	1.225072e+00	1.225083e+00	1.207386e+00	1.209277e+00	1.194820