# vtk DataFile Version 3.0
vtk output
ASCII
DATASET UNSTRUCTURED_GRID
POINTS 13100 double
8.250000e-01	2.490000e-02	0.0	6.750000e-01	-2.870000e-02	0.0	8.250000e-01	2.410000e-02	0.0	1.044520e+00	-1.740390e-01	0.0	1.037880e+00	-1.812280e-01	0.0	3.000000e+01	0.000000e+00	0.0	0.000000e+00	3.000000e+01	0.0	-3.000000e+01	0.000000e+00	0.0	0.000000e+00	-3.000000e+01	0.0	8.225136e-01	2.515232e-02	0.0	8.200260e-01	2.539252e-02	0.0	8.175378e-01	2.562525e-02	0.0	8.150494e-01	2.585730e-02	0.0	8.125613e-01	2.609165e-02	0.0	8.100736e-01	2.633135e-02	0.0	8.075861e-01	2.657236e-02	0.0	8.050983e-01	2.680983e-02	0.0	8.026098e-01	2.704006e-02	0.0	8.001202e-01	2.725873e-02	0.0	7.976299e-01	2.746874e-02	0.0	7.951395e-01	2.767761e-02	0.0	7.926495e-01	2.789148e-02	0.0	7.901604e-01	2.811515e-02	0.0	7.876726e-01	2.835330e-02	0.0	7.851860e-01	2.860319e-02	0.0	7.826998e-01	2.885676e-02	0.0	7.802132e-01	2.910705e-02	0.0	7.777258e-01	2.934887e-02	0.0	7.752372e-01	2.957879e-02	0.0	7.727477e-01	2.979747e-02	0.0	7.702575e-01	3.000941e-02	0.0	7.677670e-01	3.021649e-02	0.0	7.652761e-01	3.042027e-02	0.0	7.627851e-01	3.062199e-02	0.0	7.602941e-01	3.082274e-02	0.0	7.578030e-01	3.102339e-02	0.0	7.553119e-01	3.122471e-02	0.0	7.528212e-01	3.142976e-02	0.0	7.503311e-01	3.164143e-02	0.0	7.478411e-01	3.185610e-02	0.0	7.453511e-01	3.206905e-02	0.0	7.428606e-01	3.227672e-02	0.0	7.403695e-01	3.247765e-02	0.0	7.378779e-01	3.267186e-02	0.0	7.353859e-01	3.286004e-02	0.0	7.328934e-01	3.304304e-02	0.0	7.304007e-01	3.322165e-02	0.0	7.279077e-01	3.339668e-02	0.0	7.254145e-01	3.356925e-02	0.0	7.229212e-01	3.374009e-02	0.0	7.204278e-01	3.390963e-02	0.0	7.179343e-01	3.407814e-02	0.0	7.154408e-01	3.424580e-02	0.0	7.129472e-01	3.441275e-02	0.0	7.104536e-01	3.457908e-02	0.0	7.079600e-01	3.474488e-02	0.0	7.054663e-01	3.491018e-02	0.0	7.029726e-01	3.507505e-02	0.0	7.004789e-01	3.523952e-02	0.0	6.979851e-01	3.540361e-02	0.0	6.954913e-01	3.556734e-02	0.0	6.929975e-01	3.573075e-02	0.0	6.905037e-01	3.589382e-02	0.0	6.880099e-01	3.605658e-02	0.0	6.855160e-01	3.621902e-02	0.0	6.830221e-01	3.638113e-02	0.0	6.805282e-01	3.654289e-02	0.0	6.780343e-01	3.670427e-02	0.0	6.755403e-01	3.686520e-02	0.0	6.730464e-01	3.702597e-02	0.0	6.705524e-01	3.718730e-02	0.0	6.680585e-01	3.734890e-02	0.0	6.655645e-01	3.750979e-02	0.0	6.630704e-01	3.766751e-02	0.0	6.605758e-01	3.781852e-02	0.0	6.580807e-01	3.796176e-02	0.0	6.555854e-01	3.809963e-02	0.0	6.530899e-01	3.823465e-02	0.0	6.505943e-01	3.836829e-02	0.0	6.480987e-01	3.850119e-02	0.0	6.456031e-01	3.863339e-02	0.0	6.431074e-01	3.876490e-02	0.0	6.406117e-01	3.889573e-02	0.0	6.381159e-01	3.902586e-02	0.0	6.356201e-01	3.915530e-02	0.0	6.331243e-01	3.928401e-02	0.0	6.306284e-01	3.941197e-02	0.0	6.281325e-01	3.953916e-02	0.0	6.256365e-01	3.966553e-02	0.0	6.231406e-01	3.979105e-02	0.0	6.206445e-01	3.991565e-02	0.0	6.181484e-01	4.003928e-02	0.0	6.156523e-01	4.016186e-02	0.0	6.131561e-01	4.028332e-02	0.0	6.106598e-01	4.040356e-02	0.0	6.081635e-01	4.052246e-02	0.0	6.056671e-01	4.063988e-02	0.0	6.031707e-01	4.075566e-02	0.0	6.006741e-01	4.086959e-02	0.0	5.981775e-01	4.098194e-02	0.0	5.956808e-01	4.109386e-02	0.0	5.931842e-01	4.120528e-02	0.0	5.906875e-01	4.131604e-02	0.0	5.881908e-01	4.142599e-02	0.0	5.856940e-01	4.153499e-02	0.0	5.831972e-01	4.164289e-02	0.0	5.807003e-01	4.174954e-02	0.0	5.782034e-01	4.185478e-02	0.0	5.757064e-01	4.195847e-02	0.0	5.732093e-01	4.206046e-02	0.0	5.707122e-01	4.216060e-02	0.0	5.682149e-01	4.225874e-02	0.0	5.657176e-01	4.235473e-02	0.0	5.632202e-01	4.244843e-02	0.0	5.607228e-01	4.253967e-02	0.0	5.582252e-01	4.262832e-02	0.0	5.557275e-01	4.271422e-02	0.0	5.532297e-01	4.279722e-02	0.0	5.507319e-01	4.287717e-02	0.0	5.482339e-01	4.295335e-02	0.0	5.457357e-01	4.302426e-02	0.0	5.432375e-01	4.309033e-02	0.0	5.407391e-01	4.315208e-02	0.0	5.382406e-01	4.321004e-02	0.0	5.357421e-01	4.326471e-02	0.0	5.332434e-01	4.331664e-02	0.0	5.307448e-01	4.336634e-02	0.0	5.282461e-01	4.341433e-02	0.0	5.257474e-01	4.346115e-02	0.0	5.232487e-01	4.350731e-02	0.0	5.207499e-01	4.355333e-02	0.0	5.182512e-01	4.359975e-02	0.0	5.157525e-01	4.364709e-02	0.0	5.132539e-01	4.369586e-02	0.0	5.107552e-01	4.374660e-02	0.0	5.082566e-01	4.379982e-02	0.0	5.057581e-01	4.385606e-02	0.0	5.032597e-01	4.391583e-02	0.0	5.007614e-01	4.397966e-02	0.0	4.982631e-01	4.404807e-02	0.0	4.957651e-01	4.412106e-02	0.0	4.932671e-01	4.419809e-02	0.0	4.907692e-01	4.427859e-02	0.0	4.882715e-01	4.436201e-02	0.0	4.857738e-01	4.444779e-02	0.0	4.832762e-01	4.453535e-02	0.0	4.807786e-01	4.462415e-02	0.0	4.782811e-01	4.471362e-02	0.0	4.757835e-01	4.480321e-02	0.0	4.732860e-01	4.489235e-02	0.0	4.707884e-01	4.498048e-02	0.0	4.682907e-01	4.506704e-02	0.0	4.657930e-01	4.515148e-02	0.0	4.632952e-01	4.523322e-02	0.0	4.607973e-01	4.531172e-02	0.0	4.582993e-01	4.538641e-02	0.0	4.558011e-01	4.545672e-02	0.0	4.533028e-01	4.552210e-02	0.0	4.508044e-01	4.558198e-02	0.0	4.483058e-01	4.563631e-02	0.0	4.458072e-01	4.568647e-02	0.0	4.433085e-01	4.573283e-02	0.0	4.408097e-01	4.577564e-02	0.0	4.383108e-01	4.581518e-02	0.0	4.358120e-01	4.585169e-02	0.0	4.333130e-01	4.588545e-02	0.0	4.308141e-01	4.591671e-02	0.0	4.283151e-01	4.594574e-02	0.0	4.258161e-01	4.597280e-02	0.0	4.233171e-01	4.599815e-02	0.0	4.208180e-01	4.602205e-02	0.0	4.183190e-01	4.604476e-02	0.0	4.158199e-01	4.606656e-02	0.0	4.133209e-01	4.608769e-02	0.0	4.108218e-01	4.610842e-02	0.0	4.083228e-01	4.612902e-02	0.0	4.058237e-01	4.614975e-02	0.0	4.033246e-01	4.617086e-02	0.0	4.008256e-01	4.619262e-02	0.0	3.983265e-01	4.621500e-02	0.0	3.958275e-01	4.623715e-02	0.0	3.933284e-01	4.625892e-02	0.0	3.908294e-01	4.628024e-02	0.0	3.883303e-01	4.630103e-02	0.0	3.858312e-01	4.632123e-02	0.0	3.833322e-01	4.634075e-02	0.0	3.808331e-01	4.635952e-02	0.0	3.783340e-01	4.637747e-02	0.0	3.758349e-01	4.639452e-02	0.0	3.733358e-01	4.641059e-02	0.0	3.708367e-01	4.642562e-02	0.0	3.683376e-01	4.643952e-02	0.0	3.658385e-01	4.645222e-02	0.0	3.633394e-01	4.646365e-02	0.0	3.608402e-01	4.647373e-02	0.0	3.583411e-01	4.648238e-02	0.0	3.558420e-01	4.648954e-02	0.0	3.533428e-01	4.649512e-02	0.0	3.508437e-01	4.649906e-02	0.0	3.483445e-01	4.650138e-02	0.0	3.458454e-01	4.650243e-02	0.0	3.433462e-01	4.650223e-02	0.0	3.408471e-01	4.650078e-02	0.0	3.383479e-01	4.649807e-02	0.0	3.358488e-01	4.649413e-02	0.0	3.333496e-01	4.648893e-02	0.0	3.308505e-01	4.648248e-02	0.0	3.283514e-01	4.647478e-02	0.0	3.258522e-01	4.646584e-02	0.0	3.233531e-01	4.645564e-02	0.0	3.208540e-01	4.644420e-02	0.0	3.183549e-01	4.643150e-02	0.0	3.158558e-01	4.641756e-02	0.0	3.133567e-01	4.640237e-02	0.0	3.108576e-01	4.638593e-02	0.0	3.083585e-01	4.636824e-02	0.0	3.058594e-01	4.634930e-02	0.0	3.033603e-01	4.632911e-02	0.0	3.008613e-01	4.630768e-02	0.0	2.983622e-01	4.628515e-02	0.0	2.958632e-01	4.626200e-02	0.0	2.933641e-01	4.623817e-02	0.0	2.908651e-01	4.621353e-02	0.0	2.883661e-01	4.618799e-02	0.0	2.858671e-01	4.616143e-02	0.0	2.833681e-01	4.613373e-02	0.0	2.808691e-01	4.610478e-02	0.0	2.783702e-01	4.607447e-02	0.0	2.758712e-01	4.604270e-02	0.0	2.733723e-01	4.600933e-02	0.0	2.708734e-01	4.597427e-02	0.0	2.683745e-01	4.593741e-02	0.0	2.658757e-01	4.589862e-02	0.0	2.633768e-01	4.585780e-02	0.0	2.608781e-01	4.581483e-02	0.0	2.583793e-01	4.576960e-02	0.0	2.558806e-01	4.572201e-02	0.0	2.533820e-01	4.567193e-02	0.0	2.508834e-01	4.561926e-02	0.0	2.483848e-01	4.556415e-02	0.0	2.458863e-01	4.550741e-02	0.0	2.433879e-01	4.544906e-02	0.0	2.408894e-01	4.538900e-02	0.0	2.383911e-01	4.532718e-02	0.0	2.358927e-01	4.526351e-02	0.0	2.333944e-01	4.519792e-02	0.0	2.308962e-01	4.513034e-02	0.0	2.283980e-01	4.506069e-02	0.0	2.258999e-01	4.498890e-02	0.0	2.234018e-01	4.491489e-02	0.0	2.209039e-01	4.483859e-02	0.0	2.184060e-01	4.475992e-02	0.0	2.159081e-01	4.467881e-02	0.0	2.134104e-01	4.459518e-02	0.0	2.109127e-01	4.450897e-02	0.0	2.084151e-01	4.442009e-02	0.0	2.059177e-01	4.432847e-02	0.0	2.034203e-01	4.423404e-02	0.0	2.009231e-01	4.413672e-02	0.0	1.984259e-01	4.403650e-02	0.0	1.959289e-01	4.393359e-02	0.0	1.934320e-01	4.382811e-02	0.0	1.909352e-01	4.372013e-02	0.0	1.884384e-01	4.360972e-02	0.0	1.859418e-01	4.349693e-02	0.0	1.834453e-01	4.338178e-02	0.0	1.809490e-01	4.326430e-02	0.0	1.784527e-01	4.314449e-02	0.0	1.759565e-01	4.302235e-02	0.0	1.734605e-01	4.289786e-02	0.0	1.709646e-01	4.277100e-02	0.0	1.684687e-01	4.264170e-02	0.0	1.659731e-01	4.250992e-02	0.0	1.634775e-01	4.237557e-02	0.0	1.609822e-01	4.223856e-02	0.0	1.584869e-01	4.209876e-02	0.0	1.559918e-01	4.195602e-02	0.0	1.534970e-01	4.181016e-02	0.0	1.510023e-01	4.166095e-02	0.0	1.485078e-01	4.150830e-02	0.0	1.460135e-01	4.135261e-02	0.0	1.435194e-01	4.119369e-02	0.0	1.410255e-01	4.103126e-02	0.0	1.385319e-01	4.086503e-02	0.0	1.360386e-01	4.069471e-02	0.0	1.335456e-01	4.052000e-02	0.0	1.310529e-01	4.034059e-02	0.0	1.285605e-01	4.015619e-02	0.0	1.260686e-01	3.996653e-02	0.0	1.235771e-01	3.977132e-02	0.0	1.210860e-01	3.957032e-02	0.0	1.185954e-01	3.936331e-02	0.0	1.161054e-01	3.915010e-02	0.0	1.136159e-01	3.893054e-02	0.0	1.111270e-01	3.870451e-02	0.0	1.086387e-01	3.847177e-02	0.0	1.061512e-01	3.823146e-02	0.0	1.036643e-01	3.798369e-02	0.0	1.011782e-01	3.772865e-02	0.0	9.869287e-02	3.746648e-02	0.0	9.620826e-02	3.719729e-02	0.0	9.372442e-02	3.692112e-02	0.0	9.124136e-02	3.663798e-02	0.0	8.875912e-02	3.634781e-02	0.0	8.627772e-02	3.605050e-02	0.0	8.379721e-02	3.574585e-02	0.0	8.131764e-02	3.543360e-02	0.0	7.883910e-02	3.511337e-02	0.0	7.636167e-02	3.478463e-02	0.0	7.388555e-02	3.444616e-02	0.0	7.141140e-02	3.409353e-02	0.0	6.893949e-02	3.372563e-02	0.0	6.646993e-02	3.334223e-02	0.0	6.400283e-02	3.294327e-02	0.0	6.153828e-02	3.252889e-02	0.0	5.907630e-02	3.209950e-02	0.0	5.661685e-02	3.165585e-02	0.0	5.415979e-02	3.119911e-02	0.0	5.170489e-02	3.073094e-02	0.0	4.925167e-02	3.025400e-02	0.0	4.679885e-02	2.977507e-02	0.0	4.434779e-02	2.928717e-02	0.0	4.190165e-02	2.877527e-02	0.0	3.946460e-02	2.822178e-02	0.0	3.704086e-02	2.761278e-02	0.0	3.463302e-02	2.694363e-02	0.0	3.224133e-02	2.621885e-02	0.0	2.986710e-02	2.543878e-02	0.0	2.750733e-02	2.461591e-02	0.0	2.515848e-02	2.376234e-02	0.0	2.281
[...]
POINT_DATA 13100

SCALARS Density double 1
LOOKUP_TABLE default
1.133423e+00	1.217390e+00	1.139878e+00	1.186997e+00	1.187514e+00	1.224470e+00	1.224671e+00	1.225051e+00	1.225290e+00	1.186757e+00	1.185820e+00	1.186502e+00	1.187330e+00	1.187806e+00	1.188027e+00	1.188397e+00	1.188998e+00	1.189797e+00	1.190948e+00	1.191900e+00	1.192536e+00	1.193001e+00	1.192974e+00	1.192607e+00	1.192146e+00	1.191918e+00	1.191973e+00	1.192330e+00	1.192851e+00	1.193430e+00	1.193896e+00	1.194376e+00	1.194775e+00	1.195083e+00	1.195445e+00	1.195723e+00	1.195942e+00	1.195878e+00	1.195653e+00	1.195502e+00	1.195541e+00	1.195742e+00	1.195965e+00	1.196256e+00	1.196501e+00	1.196801e+00	1.197108e+00	1.197350e+00	1.197574e+00	1.197801e+00	1.198020e+00	1.198225e+00	1.198408e+00	1.198552e+00	1.198664e+00	1.198818e+00	1.198923e+00	1.199041e+00	1.199164e+00	1.199335e+00	1.199420e+00	1.199512e+00	1.199624e+00	1.199689e+00	1.199767e+00	1.199826e+00	1.199891e+00	1.199987e+00	1.200046e+00	1.200035e+00	1.199993e+00	1.199887e+00	1.199771e+00	1.199777e+00	1.200115e+00	1.200381e+00	1.200579e+00	1.200759e+00	1.200886e+00	1.200986e+00	1.201052e+00	1.201139e+00	1.201220e+00	1.201306e+00	1.201363e+00	1.201434e+00	1.201493e+00	1.201546e+00	1.201613e+00	1.201673e+00	1.201725e+00	1.201774e+00	1.201820e+00	1.201867e+00	1.201936e+00	1.201986e+00	1.202051e+00	1.202137e+00	1.202245e+00	1.202318e+00	1.202339e+00	1.202370e+00	1.202415e+00	1.202427e+00	1.202448e+00	1.202459e+00	1.202476e+00	1.202522e+00	1.202562e+00	1.202574e+00	1.202616e+00	1.202653e+00	1.202664e+00	1.202683e+00	1.202766e+00	1.202779e+00	1.202814e+00	1.202823e+00	1.202887e+00	1.202979e+00	1.203129e+00	1.203319e+00	1.203480e+00	1.203644e+00	1.203806e+00	1.203951e+00	1.204103e+00	1.204276e+00	1.204435e+00	1.204584e+00	1.204736e+00	1.204881e+00	1.205023e+00	1.205135e+00	1.205222e+00	1.205303e+00	1.205367e+00	1.205377e+00	1.205366e+00	1.205310e+00	1.205223e+00	1.205142e+00	1.205070e+00	1.204921e+00	1.204814e+00	1.204726e+00	1.204596e+00	1.204508e+00	1.204403e+00	1.204279e+00	1.204177e+00	1.204090e+00	1.204000e+00	1.203953e+00	1.203926e+00	1.203906e+00	1.203909e+00	1.203967e+00	1.204060e+00	1.204133e+00	1.204193e+00	1.204255e+00	1.204325e+00	1.204411e+00	1.204491e+00	1.204576e+00	1.204670e+00	1.204757e+00	1.204834e+00	1.204914e+00	1.204974e+00	1.205045e+00	1.205120e+00	1.205170e+00	1.205222e+00	1.205283e+00	1.205300e+00	1.205314e+00	1.205274e+00	1.205248e+00	1.205250e+00	1.205244e+00	1.205258e+00	1.205257e+00	1.205269e+00	1.205269e+00	1.205258e+00	1.205253e+00	1.205273e+00	1.205278e+00	1.205259e+00	1.205252e+00	1.205247e+00	1.205231e+00	1.205229e+00	1.205217e+00	1.205250e+00	1.205282e+00	1.205269e+00	1.205286e+00	1.205308e+00	1.205298e+00	1.205299e+00	1.205277e+00	1.205295e+00	1.205289e+00	1.205298e+00	1.205302e+00	1.205302e+00	1.205290e+00	1.205299e+00	1.205284e+00	1.205300e+00	1.205294e+00	1.205303e+00	1.205281e+00	1.205289e+00	1.205277e+00	1.205278e+00	1.205282e+00	1.205266e+00	1.205269e+00	1.205240e+00	1.205225e+00	1.205191e+00	1.205171e+00	1.205098e+00	1.205057e+00	1.205040e+00	1.205017e+00	1.205015e+00	1.204987e+00	1.204972e+00	1.204947e+00	1.204936e+00	1.204883e+00	1.204860e+00	1.204873e+00	1.204886e+00	1.204909e+00	1.204872e+00	1.204853e+00	1.204808e+00	1.204819e+00	1.204816e+00	1.204791e+00	1.204735e+00	1.204711e+00	1.204670e+00	1.204615e+00	1.204576e+00	1.204551e+00	1.204501e+00	1.204488e+00	1.204436e+00	1.204418e+00	1.204413e+00	1.204375e+00	1.204363e+00	1.204393e+00	1.204375e+00	1.204375e+00	1.204363e+00	1.204284e+00	1.204270e+00	1.204236e+00	1.204160e+00	1.204088e+00	1.204066e+00	1.203999e+00	1.203971e+00	1.203909e+00	1.203812e+00	1.203779e+00	1.203706e+00	1.203548e+00	1.203500e+00	1.203405e+00	1.203368e+00	1.203273e+00	1.203198e+00	1.203088e+00	1.203013e+00	1.202874e+00	1.202793e+00	1.202682e+00	1.202630e+00	1.202530e+00	1.202474e+00	1.202368e+00	1.202320e+00	1.202169e+00	1.202095e+00	1.201927e+00	1.201838e+00	1.201724e+00	1.201653e+00	1.201561e+00	1.201566e+00	1.201499e+00	1.201292e+00	1.201270e+00	1.201136e+00	1.201068e+00	1.200818e+00	1.200667e+00	1.200469e+00	1.200312e+00	1.200017e+00	1.199691e+00	1.199552e+00	1.199577e+00	1.199436e+00	1.199427e+00	1.199314e+00	1.199254e+00	1.199126e+00	1.198848e+00	1.198681e+00	1.197953e+00	1.196927e+00	1.195853e+00	1.195150e+00	1.195001e+00	1.195544e+00	1.196166e+00	1.197234e+00	1.198215e+00	1.199426e+00	1.200216e+00	1.200025e+00	1.199150e+00	1.197893e+00	1.195150e+00	1.190824e+00	1.189830e+00	1.202277e+00	1.210326e+00	1.213537e+00	1.224686e+00	1.231589e+00	1.239968e+00	1.246203e+00	1.250482e+00	1.256362e+00	1.255413e+00	1.255156e+00	1.255480e+00	1.252806e+00	1.250979e+00	1.245163e+00	1.240243e+00	1.236078e+00	1.233416e+00	1.232039e+00	1.230298e+00	1.227745e+00	1.226959e+00	1.226822e+00	1.226602e+00	1.226096e+00	1.225470e+00	1.225381e+00	1.225153e+00	1.225017e+00	1.224747e+00	1.224345e+00	1.224231e+00	1.224143e+00	1.224061e+00	1.224354e+00	1.224511e+00	1.224565e+00	1.224455e+00	1.224464e+00	1.224310e+00	1.224054e+00	1.224100e+00	1.224076e+00	1.223973e+00	1.223960e+00	1.223996e+00	1.224075e+00	1.224154e+00	1.224156e+00	1.224174e+00	1.224144e+00	1.224175e+00	1.224162e+00	1.224230e+00	1.224258e+00	1.224339e+00	1.224389e+00	1.224352e+00	1.224319e+00	1.224367e+00	1.224391e+00	1.224424e+00	1.224459e+00	1.224481e+00	1.224533e+00	1.224627e+00	1.224665e+00	1.224756e+00	1.224811e+00	1.224880e+00	1.224934e+00	1.225021e+00	1.225077e+00	1.225127e+00	1.225186e+00	1.225210e+00	1.225260e+00	1.225302e+00	1.225367e+00	1.225406e+00	1.225440e+00	1.225493e+00	1.225528e+00	1.225583e+00	1.225617e+00	1.225674e+00	1.225699e+00	1.225739e+00	1.225763e+00	1.225800e+00	1.225828e+00	1.225882e+00	1.225926e+00	1.225945e+00	1.225969e+00	1.225986e+00	1.226028e+00	1.226078e+00	1.226112e+00	1.226156e+00	1.226197e+00	1.226261e+00	1.226296e+00	1.226331e+00	1.226396e+00	1.226442e+00	1.226475e+00	1.226526e+00	1.226579e+00	1.226612e+00	1.226654e+00	1.226696e+00	1.226748e+00	1.226793e+00	1.226820e+00	1.226869e+00	1.226907e+00	1.226924e+00	1.226958e+00	1.227016e+00	1.227066e+00	1.227117e+00	1.227163e+00	1.227230e+00	1.227288e+00	1.227342e+00	1.227389e+00	1.227448e+00	1.227502e+00	1.227563e+00	1.227612e+00	1.227665e+00	1.227711e+00	1.227771e+00	1.227816e+00	1.227848e+00	1.227886e+00	1.227919e+00	1.227969e+00	1.228015e+00	1.228058e+00	1.228095e+00	1.228127e+00	1.228163e+00	1.228207e+00	1.228256e+00	1.228299e+00	1.228340e+00	1.228374e+00	1.228405e+00	1.228442e+00	1.228493e+00	1.228530e+00	1.228566e+00	1.228596e+00	1.228637e+00	1.228675e+00	1.228719e+00	1.228774e+00	1.228828e+00	1.228875e+00	1.228915e+00	1.228958e+00	1.228994e+00	1.229052e+00	1.229096e+00	1.229147e+00	1.229194e+00	1.229238e+00	1.229281e+00	1.229336e+00	1.229384e+00	1.229429e+00	1.229476e+00	1.229533e+00	1.229570e+00	1.229618e+00	1.229661e+00	1.229707e+00	1.229763e+00	1.229802e+00	1.229838e+00	1.229881e+00	1.229910e+00	1.229943e+00	1.229984e+00	1.230045e+00	1.230089e+00	1.230139e+00	1.230173e+00	1.230218e+00	1.230243e+00	1.230270e+00	1.230315e+00	1.230389e+00	1.230433e+00	1.230503e+00	1.230547e+00	1.230588e+00	1.230629e+00	1.230672e+00	1.230702e+00	1.230739e+00	1.230778e+00	1.230819e+00	1.230874e+00	1.230923e+00	1.230950e+00	1.230988e+00	1.231036e+00	1.231081e+00	1.231103e+00	1.231141e+00	1.231196e+00	1.231271e+00	1.231347e+00	1.231407e+00	1.231461e+00	1.231511e+00	1.231555e+00	1.231587e+00	1.231623e+00	1.231647e+00	1.231685e+00	1.231727e+00	1.231764e+00	1.231806e+00	1.231871e+00	1.231923e+00	1.231954e+00	1.231990e+00	1.232029e+00	1.232075e+00	1.232101e+00	1.232186e+00	1.232300e+00	1.232389e+00	1.232449e+00	1.232521e+00	1.232572e+00	1.232634e+00	1.232673e+00	1.232711e+00	1.232784e+00	1.232817e+00	1.232862e+00	1.232920e+00	1.232973e+00	1.233005e+00	1.233064e+00	1.233120e+00	1.233194e+00	1.233279e+00	1.233315e+00	1.233360e+00	1.233451e+00	1.233526e+00	1.233686e+00	1.233785e+00	1.233887e+00	1.234087e+00	1.234267e+00	1.234417e+00	1.234435e+00	1.234591e+00	1.234736e+00	1.234892e+00	1.235082e+00	1.235197e+00	1.235295e+00	1.235412e+00	1.235589e+00	1.235710e+00	1.235856e+00	1.235968e+00	1.235922e+00	1.236004e+00	1.235938e+00	1.235981e+00	1.236065e+00	1.236346e+00	1.236616e+00	1.237614e+00	1.239825e+00	1.206619e+00	1.214699e+00	1.217511e+00	1.219127e+00	1.220055e+00	1.220440e+00	1.220611e+00	1.220872e+00	1.221090e+00	1.221571e+00	1.221792e+00	1.222131e+00	1.222513e+00	1.222611e+00	1.222961e+00	1.223110e+00	1.223156e+00	1.223430e+00	1.223714e+00	1.223899e+00	1.224023e+00	1.224126e+00	1.224455e+00	1.224847e+00	1.225003e+00	1.225305e+00	1.225629e+00	1.225847e+00	1.225958e+00	1.226282e+00	1.226556e+00	1.226725e+00	1.226852e+00	1.226986e+00	1.227100e+00	1.227233e+00	1.227324e+00	1.227449e+00	1.227636e+00	1.227754e+00	1.227904e+00	1.228123e+00	1.228216e+00	1.228457e+00	1.228514e+00	1.228682e+00	1.228931e+00	1.229073e+00	1.229351e+00	1.229433e+00	1.229911e+00	1.230246e+00	1.230127e+00	1.230211e+00	1.230692e+00	1.231036e+00	1.231342e+00	1.231531e+00	1.231576e+00	1.230189e+00	1.230026e+00	1.228774e+00	1.227336e+00	1.225588e+00	1.222565e+00	1.218012e+00	1.212957e+00	1.206211e+00	1.197672e+00	1.190988e+00	1.224544e+00	1.224619e+00	1.224670e+00	1.224686e+00	1.224694e+00	1.224700e+00	1.224694e+00	1.224688e+00	1.224687e+00	1.224681e+00	1.224677e+00	1.224673e+00	1.224668e+00	1.224667e+00	1.224669e+00	1.224685e+00	1.224692e+00	1.224709e+00	1.224733e+00	1.224758e+00	1.224786e+00	1.224810e+00	1.224833e+00	1.224860e+00	1.224888e+00	1.224917e+00	1.224945e+00	1.224974e+00	1.225001e+00	1.225026e+00	1.225079e+00	1.225105e+00	1.225132e+00	1.225154e+00	1.225178e+00	1.225202e+00	1.225223e+00	1.225239e+00	1.225254e+00	1.225270e+00	1.225283e+00	1.225289e+00	1.225297e+00	1.225298e+00	1.225297e+00	1.225279e+00	1.225269e+00	1.225262e+00	1.225249e+00	1.225237e+00	1.225219e+00	1.225202e+00	1.225180e+00	1.225156e+00	1.225119e+00	1.225060e+00	1.224954e+00	1.224783e+00	1.224573e+00	1.224460e+00	1.209975e+00	1.208731e+00	1.206744e+00	1.203468e+00	1.203790e+00	1.205897e+00	1.206232e+00	1.206283e+00	1.205904e+00	1.205187e+00	1.204427e+00	1.203740e+00	1.202838e+00	1.202161e+00	1.201670e+00	1.201118e+00	1.200381e+00	1.199743e+00	1.198954e+00	1.198084e+00	1.197016e+00	1.196298e+00	1.195566e+00	1.194674e+00	1.193626e+00	1.192654e+00	1.191620e+00	1.190555e+00	1.189444e+00	1.188121e+00	1.186277e+00	1.184102e+00	1.182561e+00	1.181752e+00	1.180415e+00	1.178437e+00	1.176546e+00	1.175153e+00	1.174272e+00	1.173984e+00	1.173354e+00	1.172564e+00	1.171466e+00	1.170123e+00	1.169218e+00	1.168188e+00	1.166709e+00	1.165506e+00	1.164165e+00	1.161891e+00	1.159761e+00	1.158281e+00	1.157366e+00	1.156846e+00	1.155817e+00	1.152954e+00	1.151491e+00	1.149985e+00	1.149063e+00	1.149255e+00	1.150148e+00	1.149696e+00	1.150101e+00	1.153126e+00	1.151286e+00	1.151081e+00	1.162200e+00	1.173153e+00	1.188260e+00	1.210821e+00	1.228308e+00	1.240550e+00	1.241638e+00	1.239926e+00	1.239675e+00	1.239622e+00	1.239158e+00	1.239339e+00	1.239569e+00	1.239604e+00	1.239943e+00	1.239887e+00	1.239993e+00	1.240339e+00	1.240348e+00	1.240137e+00	1.240451e+00	1.240366e+00	1.240462e+00	1.240568e+00	1.240460e+00	1.240501e+00	1.240592e+00	1.240534e+00	1.240745e+00	1.240643e+00	1.240656e+00	1.240622e+00	1.240586e+00	1.240607e+00	1.240541e+00	1.240594e+00	1.240486e+00	1.240524e+00	1.240507e+00	1.240442e+00	1.240527e+00	1.240386e+00	1.240270e+00	1.240247e+00	1.240244e+00	1.240261e+00	1.240223e+00	1.240226e+00	1.240072e+00	1.240047e+00	1.239953e+00	1.239898e+00	1.239854e+00	1.239796e+00	1.239798e+00	1.239706e+00	1.239633e+00	1.239527e+00	1.239587e+00	1.239596e+00	1.239512e+00	1.239554e+00	1.239481e+00	1.239393e+00	1.239303e+00	1.239254e+00	1.239134e+00	1.239123e+00	1.238967e+00	1.238908e+00	1.238846e+00	1.238699e+00	1.238685e+00	1.238581e+00	1.238504e+00	1.238479e+00	1.238407e+00	1.238481e+00	1.238412e+00	1.238311e+00	1.238163e+00	1.238113e+00	1.237982e+00	1.237847e+00	1.237775e+00	1.237534e+00	1.237509e+00	1.237414e+00	1.237454e+00	1.237458e+00	1.237315e+00	1.237252e+00	1.236943e+00	1.236501e+00	1.236163e+00	1.236271e+00	1.236161e+00	1.235859e+00	1.235552e+00	1.235344e+00	1.235348e+00	1.235169e+00	1.234737e+00	1.234746e+00	1.237897e+00	1.150989e+00	1.168103e+00	1.225416e+00	1.224513e+00	1.225798e+00	1.224137e+00	1.226553e+00	1.223321e+00	1.227889e+00	1.221486e+00	1.222835e+00	1.230036e+00	1.216958e+00	1.233191e+00	1.221263e+00	1.223850e+00	1.226783e+00	1.236053e+00	1.225737e+00	1.208999e+00	1.239851e+00	1.217985e+00	1.226048e+00	1.235030e+00	1.230584e+00	1.240101e+00	1.218042e+00	1.231969e+00	1.227886e+00	1.213401e+00	1.194042e+00	1.207841e+00	1.224862e+00	1.237123e+00	1.209046e+00	1.224654e+00	1.239361e+00	1.234573e+00	1.232459e+00	1.231103e+00	1.238643e+00	1.236771e+00	1.241855e+00	1.231409e+00	1.224775e+00	1.218273e+00	1.201768e+00	1.210104e+00	1.213462e+00	1.238239e+00	1.231919e+00	1.230412e+00	1.235626e+00	1.232924e+00	1.225262e+00	1.205389e+00	1.212545e+00	1.241302e+00	1.236590e+00	1.234775e+00	1.233393e+00	1.231667e+00	1.230965e+00	1.207298e+00	1.209310e+00	1.210807e+00	1.213120e+00	1.218813e+00	1.225641e+00	1.239589e+00	1.223369e+00	1.209495e+00	1.230575e+00	1.231307e+00	1.241552e+00	1.198977e+00	1.224206e+00	1.225638e+00	1.233734e+00	1.233462e+00	1.213717e+00	1.217360e+00	1.226571e+00	1.236865e+00	1.232187e+00	1.231540e+00	1.210542e+00	1.210820e+00	1.241922e+00	1.241626e+00	1.233129e+00	1.207344e+00	1.207512e+00	1.208871e+00	1.209073e+00	1.237245e+00	1.224094e+00	1.225226e+00	1.234851e+00	1.204862e+00	1.202798e+00	1.200694e+00	1.196841e+00	1.229032e+00	1.238211e+00	1.205378e+00	1.230662e+00	1.230421e+00	1.229767e+00	1.229814e+00	1.191973e+00	1.210098e+00	1.211031e+00	1.182017e+00	1.233649e+00	1.232974e+00	1.236648e+00	1.235460e+00	1.232960e+00	1.208630e+00	1.208793e+00	1.240534e+00	1.233228e+00	1.232209e+00	1.185490e+00	1.236283e+00	1.229134e+00	1.229676e+00	1.211735e+00	1.219428e+00	1.205640e+00	1.224670e+00	1.233484e+00	1.207031e+00	1.229887e+00	1.232544e+00	1.225657e+00	1.208367e+00	1.208347e+00	1.206059e+00	1.207097e+00	1.207464e+00	1.238431e+00	1.206096e+00	1.240831e+00	1.237087e+00	1.224988e+00	1.240315e+00	1.203947e+00	1.202895e+00	1.231524e+00	1.208239e+00	1.222305e+00	1.200057e+00	1.231063e+00	1.224655e+00	1.227882e+00	1.200860e+00	1.239362e+00	1.188823e+00	1.201836e+00	1.221520e+00	1.207321e+00	1.228805e+00	1.198952e+00	1.196984e+00	1.235561e+00	1.228708e+00	1.237808e+00	1.205975e+00	1.229713e+00	1.241566e+00	1.232407e+00	1.224555e+00	1.228247e+00	1.224527e+00	1.235940e+00	1.225462e+00	1.227603e+00	1.194513e+00	1.191127e+00	1.240734e+00	1.224592e+00	1.222901e+00	1.235844e+00	1.230381e+00	1.229972e+00	1.208287e+00	1.207445e+00	1.241413e+00	1.224266e+00	1.231212e+00	1.204351e+00	1.203622e+00	1.218313e+00	1.220830e+00	1.229100e+00	1.228845e+00	1.202877e+00	1.212136e+00	1.230013e+00	1.226507e+00	1.186201e+00	1.234296e+00	1.233666e+00	1.226743e+00	1.228220e+00	1.232691e+00	1.213269e+00	1.230997e+00	1.241170e+00	1.206837e+00	1.206946e+00	1.206780e+00	1.206881e+00	1.208220e+00	1.226075e+00	1.227948e+00	1.237290e+00	1.229599e+00	1.224001e+00	1.228674e+00	1.229638e+00	1.238497e+00	1.239430e+00	1.238344e+00	1.236750e+00	1.229831e+00	1.233081e+00	1.228364e+00	1.233550e+00	1.219797e+00	1.200781e+00	1.216143e+00	1.238582e+00	1.227750e+00	1.239909e+00	1.224105e+00	1.231994e+00	1.224399e+00	1.223939e+00	1.227711e+00	1.206701e+00	1.240784e+00	1.225469e+00	1.224780e+00	1.225486e+00	1.241531e+00	1.240161e+00	1.240948e+00	1.240863e+00	1.205258e+00	1.218826e+00	1.225043e+00	1.190097e+00	1.195843e+00	1.238953e+00	1.235751e+00	1.206252e+00	1.204424e+00	1.239815e+00	1.230256e+00	1.206837e+00	1.205716e+00	1.234999e+00	1.227305e+00	1.233211e+00	1.220951e+00	1.202692e+00	1.206542e+00	1.230010e+00	1.221324e+00	1.216572e+00	1.206380e+00	1.226742e+00	1.237533e+00	1.206351e+00	1.225939e+00	1.225067e+00	1.232128e+00	1.206308e+00	1.232802e+00	1.228828e+00	1.215378e+00	1.231728e+00	1.234005e+00	1.227604e+00	1.237105e+00	1.205351e+00	1.231434e+00	1.208649e+00	1.210642e+00	1.232512e+00	1.240763e+00	1.230501e+00	1.230206e+00	1.238793e+00	1.241757e+00	1.241049e+00	1.201699e+00	1.235864e+00	1.225296e+00	1.197156e+00	1.238014e+00	1.237086e+00	1.199158e+00	1.224565e+00	1.206384e+00	1.240999e+00	1.229055e+00	1.202873e+00	1.225042e+00	1.227755e+00	1.227498e+00	1.206008e+00	1.205228e+00	1.225261e+00	1.232349e+00	1.202038e+00	1.213553e+00	1.223166e+00	1.205922e+00	1.199897e+00	1.226769e+00	1.206131e+00	1.205289e+00	1.205637e+00	1.211706e+00	1.205984e+00	1.222771e+00	1.240448e+00	1.238344e+00	1.203650e+00	1.228782e+00	1.231526e+00	1.224621e+00	1.237961e+00	1.242108e+00	1.205162e+00	1.231295e+00	1.237735e+00	1.204958e+00	1.204423e+00	1.234316e+00	1.232608e+00	1.219178e+00	1.235710e+00	1.219344e+00	1.194890e+00	1.216157e+00	1.217441e+00	1.225536e+00	1.237634e+00	1.208341e+00	1.233418e+00	1.236901e+00	1.234092e+00	1.228776e+00	1.229455e+00	1.228294e+00	1.225300e+00	1.224649e+00	1.234403e+00	1.230557e+00	1.212470e+00	1.203393e+00	1.217352e+00	1.238076e+00	1.236058e+00	1.223683e+00	1.178814e+00	1.208714e+00	1.234758e+00	1.199619e+00	1.235052e+00	1.223846e+00	1.240661e+00	1.192119e+00	1.206153e+00	1.227559e+00	1.224903e+00	1.232082e+00	1.238186e+00	1.237442e+00	1.200711e+00	1.233657e+00	1.225932e+00	1.230839e+00	1.240280e+00	1.231326e+00	1.231425e+00	1.220514e+00	1.229739e+00	1.221985e+00	1.221727e+00	1.233620e+00	1.173809e+00	1.205571e+00	1.205936e+00	1.231844e+00	1.235789e+00	1.204711e+00	1.240592e+00	1.204926e+00	1.227237e+00	1.203546e+00	1.238951e+00	1.233422e+00	1.239575e+00	1.226685e+00	1.215826e+00	1.197829e+00	1.196045e+00	1.209829e+00	1.227026e+00	1.226946e+00	1.205765e+00	1.232551e+00	1.231428e+00	1.226591e+00	1.220100e+00	1.205971e+00	1.241940e+00	1.240689e+00	1.238168e+00	1.236572e+00	1.204108e+00	1.224605e+00	1.224633e+00	1.240984e+00	1.225070e+00	1.236299e+00	1.223959e+00	1.238534e+00	1.226291e+00	1.205883e+00	1.240035e+00	1.220775e+00	1.210349e+00	1.208697e+00	1.236906e+00	1.245953e+00	1.193248e+00	1.231455e+00	1.235938e+00	1.239007e+00	1.197192e+00	1.224526e+00	1.230905e+00	1.213906e+00	1.227580e+00	1.226909e+00	1.226841e+00	1.232630e+00	1.206005e+00	1.226009e+00	1.225164e+00	1.224471e+00	1.233361e+00	1.228011e+00	1.214911e+00	1.205946e+00	1.205864e+00	1.235292e+00	1.229363e+00	1.213582e+00	1.223492e+00	1.225092e+00	1.231811e+00	1.230968e+00	1.204037e+00	1.222099e+00	1.213321e+00	1.233072e+00	1.244736e+00	1.232304e+00	1.232168e+00	1.225325e+00	1.205087e+00	1.232106e+00	1.239819e+00	1.171305e+00	1.235587e+00	1.232311e+00	1.204493e+00	1.235054e+00	1.183459e+00	1.233484e+00	1.240916e+00	1.224438e+00	1.169079e+00	1.188118e+00	1.238467e+00	1.237932e+00	1.224392e+00	1.226098e+00	1.234849e+00	1.239325e+00	1.206696e+00	1.236610e+00	1.205364e+00	1.235016e+00	1.239569e+00	1.233888e+00	1.233499e+00	1.238984e+00	1.216346e+00	1.201031e+00	1.230852e+00	1.225315e+00	1.236713e+00	1.212426e+00	1.230279e+00	1.229839e+00	1.226118e+00	1.205644e+00	1.241329e+00	1.232662e+00	1.222582e+00	1.226572e+00	1.215159e+00	1.202829e+00	1.202432e+00	1.206993e+00	1.239474e+00	1.227025e+00	1.202428e+00	1.224721e+00	1.240259e+00	1.225201e+00	1.239589e+00	1.204974e+00	1.229435e+00	1.228641e+00	1.228345e+00	1.241354e+00	1.241014e+00	1.229107e+00	1.230874e+00	1.240863e+00	1.210134e+00	1.205646e+00	1.205602e+00	1.200043e+00	1.241929e+00	1.233143e+00	1.236666e+00	1.219061e+00	1.231733e+00	1.206380e+00	1.224739e+00	1.224362e+00	1.199416e+00	1.225979e+00	1.240984e+00	1.205824e+00	1.227957e+00	1.177843e+00	1.230436e+00	1.236484e+00	1.204754e+00	1.205403e+00	1.210628e+00	1.241345e+00	1.239624e+00	1.203881e+00	1.208809e+00	1.202175e+00	1.235643e+00	1.239881e+00	1.239456e+00	1.196244e+00	1.226644e+00	1.231056e+00	1.222384e+00	1.198301e+00	1.205750e+00	1.205695e+00	1.205612e+00	1.238547e+00	1.238392e+00	1.226048e+00	1.221795e+00	1.204423e+00	1.205557e+00	1.207123e+00	1.230404e+00	1.225067e+00	1.229637e+00	1.187492e+00	1.205089e+00	1.234598e+00	1.223507e+00	1.224234e+00	1.233932e+00	1.190313e+00	1.220847e+00	1.208518e+00	1.231505e+00	1.228752e+00	1.225647e+00	1.225542e+00	1.184584e+00	1.241734e+00	1.224646e+00	1.230414e+00	1.217306e+00	1.234196e+00	1.228926e+00	1.226182e+00	1.238000e+00	1.227377e+00	1.22455