# vtk DataFile Version 3.0
vtk output
ASCII
DATASET UNSTRUCTURED_GRID
POINTS 13100 double
8.250000e-01	2.490000e-02	0.0	6.750000e-01	-2.870000e-02	0.0	8.250000e-01	2.410000e-02	0.0	1.044520e+00	-1.740390e-01	0.0	1.037880e+00	-1.812280e-01	0.0	3.000000e+01	0.000000e+00	0.0	0.000000e+00	3.000000e+01	0.0	-3.000000e+01	0.000000e+00	0.0	0.000000e+00	-3.000000e+01	0.0	8.225136e-01	2.515232e-02	0.0	8.200260e-01	2.539252e-02	0.0	8.175378e-01	2.562525e-02	0.0	8.150494e-01	2.585730e-02	0.0	8.125613e-01	2.609165e-02	0.0	8.100736e-01	2.633135e-02	0.0	8.075861e-01	2.657236e-02	0.0	8.050983e-01	2.680983e-02	0.0	8.026098e-01	2.704006e-02	0.0	8.001202e-01	2.725873e-02	0.0	7.976299e-01	2.746874e-02	0.0	7.951395e-01	2.767761e-02	0.0	7.926495e-01	2.789148e-02	0.0	7.901604e-01	2.811515e-02	0.0	7.876726e-01	2.835330e-02	0.0	7.851860e-01	2.860319e-02	0.0	7.826998e-01	2.885676e-02	0.0	7.802132e-01	2.910705e-02	0.0	7.777258e-01	2.934887e-02	0.0	7.752372e-01	2.957879e-02	0.0	7.727477e-01	2.979747e-02	0.0	7.702575e-01	3.000941e-02	0.0	7.677670e-01	3.021649e-02	0.0	7.652761e-01	3.042027e-02	0.0	7.627851e-01	3.062199e-02	0.0	7.602941e-01	3.082274e-02	0.0	7.578030e-01	3.102339e-02	0.0	7.553119e-01	3.122471e-02	0.0	7.528212e-01	3.142976e-02	0.0	7.503311e-01	3.164143e-02	0.0	7.478411e-01	3.185610e-02	0.0	7.453511e-01	3.206905e-02	0.0	7.428606e-01	3.227672e-02	0.0	7.403695e-01	3.247765e-02	0.0	7.378779e-01	3.267186e-02	0.0	7.353859e-01	3.286004e-02	0.0	7.328934e-01	3.304304e-02	0.0	7.304007e-01	3.322165e-02	0.0	7.279077e-01	3.339668e-02	0.0	7.254145e-01	3.356925e-02	0.0	7.229212e-01	3.374009e-02	0.0	7.204278e-01	3.390963e-02	0.0	7.179343e-01	3.407814e-02	0.0	7.154408e-01	3.424580e-02	0.0	7.129472e-01	3.441275e-02	0.0	7.104536e-01	3.457908e-02	0.0	7.079600e-01	3.474488e-02	0.0	7.054663e-01	3.491018e-02	0.0	7.029726e-01	3.507505e-02	0.0	7.004789e-01	3.523952e-02	0.0	6.979851e-01	3.540361e-02	0.0	6.954913e-01	3.556734e-02	0.0	6.929975e-01	3.573075e-02	0.0	6.905037e-01	3.589382e-02	0.0	6.880099e-01	3.605658e-02	0.0	6.855160e-01	3.621902e-02	0.0	6.830221e-01	3.638113e-02	0.0	6.805282e-01	3.654289e-02	0.0	6.780343e-01	3.670427e-02	0.0	6.755403e-01	3.686520e-02	0.0	6.730464e-01	3.702597e-02	0.0	6.705524e-01	3.718730e-02	0.0	6.680585e-01	3.734890e-02	0.0	6.655645e-01	3.750979e-02	0.0	6.630704e-01	3.766751e-02	0.0	6.605758e-01	3.781852e-02	0.0	6.580807e-01	3.796176e-02	0.0	6.555854e-01	3.809963e-02	0.0	6.530899e-01	3.823465e-02	0.0	6.505943e-01	3.836829e-02	0.0	6.480987e-01	3.850119e-02	0.0	6.456031e-01	3.863339e-02	0.0	6.431074e-01	3.876490e-02	0.0	6.406117e-01	3.889573e-02	0.0	6.381159e-01	3.902586e-02	0.0	6.356201e-01	3.915530e-02	0.0	6.331243e-01	3.928401e-02	0.0	6.306284e-01	3.941197e-02	0.0	6.281325e-01	3.953916e-02	0.0	6.256365e-01	3.966553e-02	0.0	6.231406e-01	3.979105e-02	0.0	6.206445e-01	3.991565e-02	0.0	6.181484e-01	4.003928e-02	0.0	6.156523e-01	4.016186e-02	0.0	6.131561e-01	4.028332e-02	0.0	6.106598e-01	4.040356e-02	0.0	6.081635e-01	4.052246e-02	0.0	6.056671e-01	4.063988e-02	0.0	6.031707e-01	4.075566e-02	0.0	6.006741e-01	4.086959e-02	0.0	5.981775e-01	4.098194e-02	0.0	5.956808e-01	4.109386e-02	0.0	5.931842e-01	4.120528e-02	0.0	5.906875e-01	4.131604e-02	0.0	5.881908e-01	4.142599e-02	0.0	5.856940e-01	4.153499e-02	0.0	5.831972e-01	4.164289e-02	0.0	5.807003e-01	4.174954e-02	0.0	5.782034e-01	4.185478e-02	0.0	5.757064e-01	4.195847e-02	0.0	5.732093e-01	4.206046e-02	0.0	5.707122e-01	4.216060e-02	0.0	5.682149e-01	4.225874e-02	0.0	5.657176e-01	4.235473e-02	0.0	5.632202e-01	4.244843e-02	0.0	5.607228e-01	4.253967e-02	0.0	5.582252e-01	4.262832e-02	0.0	5.557275e-01	4.271422e-02	0.0	5.532297e-01	4.279722e-02	0.0	5.507319e-01	4.287717e-02	0.0	5.482339e-01	4.295335e-02	0.0	5.457357e-01	4.302426e-02	0.0	5.432375e-01	4.309033e-02	0.0	5.407391e-01	4.315208e-02	0.0	5.382406e-01	4.321004e-02	0.0	5.357421e-01	4.326471e-02	0.0	5.332434e-01	4.331664e-02	0.0	5.307448e-01	4.336634e-02	0.0	5.282461e-01	4.341433e-02	0.0	5.257474e-01	4.346115e-02	0.0	5.232487e-01	4.350731e-02	0.0	5.207499e-01	4.355333e-02	0.0	5.182512e-01	4.359975e-02	0.0	5.157525e-01	4.364709e-02	0.0	5.132539e-01	4.369586e-02	0.0	5.107552e-01	4.374660e-02	0.0	5.082566e-01	4.379982e-02	0.0	5.057581e-01	4.385606e-02	0.0	5.032597e-01	4.391583e-02	0.0	5.007614e-01	4.397966e-02	0.0	4.982631e-01	4.404807e-02	0.0	4.957651e-01	4.412106e-02	0.0	4.932671e-01	4.419809e-02	0.0	4.907692e-01	4.427859e-02	0.0	4.882715e-01	4.436201e-02	0.0	4.857738e-01	4.444779e-02	0.0	4.832762e-01	4.453535e-02	0.0	4.807786e-01	4.462415e-02	0.0	4.782811e-01	4.471362e-02	0.0	4.757835e-01	4.480321e-02	0.0	4.732860e-01	4.489235e-02	0.0	4.707884e-01	4.498048e-02	0.0	4.682907e-01	4.506704e-02	0.0	4.657930e-01	4.515148e-02	0.0	4.632952e-01	4.523322e-02	0.0	4.607973e-01	4.531172e-02	0.0	4.582993e-01	4.538641e-02	0.0	4.558011e-01	4.545672e-02	0.0	4.533028e-01	4.552210e-02	0.0	4.508044e-01	4.558198e-02	0.0	4.483058e-01	4.563631e-02	0.0	4.458072e-01	4.568647e-02	0.0	4.433085e-01	4.573283e-02	0.0	4.408097e-01	4.577564e-02	0.0	4.383108e-01	4.581518e-02	0.0	4.358120e-01	4.585169e-02	0.0	4.333130e-01	4.588545e-02	0.0	4.308141e-01	4.591671e-02	0.0	4.283151e-01	4.594574e-02	0.0	4.258161e-01	4.597280e-02	0.0	4.233171e-01	4.599815e-02	0.0	4.208180e-01	4.602205e-02	0.0	4.183190e-01	4.604476e-02	0.0	4.158199e-01	4.606656e-02	0.0	4.133209e-01	4.608769e-02	0.0	4.108218e-01	4.610842e-02	0.0	4.083228e-01	4.612902e-02	0.0	4.058237e-01	4.614975e-02	0.0	4.033246e-01	4.617086e-02	0.0	4.008256e-01	4.619262e-02	0.0	3.983265e-01	4.621500e-02	0.0	3.958275e-01	4.623715e-02	0.0	3.933284e-01	4.625892e-02	0.0	3.908294e-01	4.628024e-02	0.0	3.883303e-01	4.630103e-02	0.0	3.858312e-01	4.632123e-02	0.0	3.833322e-01	4.634075e-02	0.0	3.808331e-01	4.635952e-02	0.0	3.783340e-01	4.637747e-02	0.0	3.758349e-01	4.639452e-02	0.0	3.733358e-01	4.641059e-02	0.0	3.708367e-01	4.642562e-02	0.0	3.683376e-01	4.643952e-02	0.0	3.658385e-01	4.645222e-02	0.0	3.633394e-01	4.646365e-02	0.0	3.608402e-01	4.647373e-02	0.0	3.583411e-01	4.648238e-02	0.0	3.558420e-01	4.648954e-02	0.0	3.533428e-01	4.649512e-02	0.0	3.508437e-01	4.649906e-02	0.0	3.483445e-01	4.650138e-02	0.0	3.458454e-01	4.650243e-02	0.0	3.433462e-01	4.650223e-02	0.0	3.408471e-01	4.650078e-02	0.0	3.383479e-01	4.649807e-02	0.0	3.358488e-01	4.649413e-02	0.0	3.333496e-01	4.648893e-02	0.0	3.308505e-01	4.648248e-02	0.0	3.283514e-01	4.647478e-02	0.0	3.258522e-01	4.646584e-02	0.0	3.233531e-01	4.645564e-02	0.0	3.208540e-01	4.644420e-02	0.0	3.183549e-01	4.643150e-02	0.0	3.158558e-01	4.641756e-02	0.0	3.133567e-01	4.640237e-02	0.0	3.108576e-01	4.638593e-02	0.0	3.083585e-01	4.636824e-02	0.0	3.058594e-01	4.634930e-02	0.0	3.033603e-01	4.632911e-02	0.0	3.008613e-01	4.630768e-02	0.0	2.983622e-01	4.628515e-02	0.0	2.958632e-01	4.626200e-02	0.0	2.933641e-01	4.623817e-02	0.0	2.908651e-01	4.621353e-02	0.0	2.883661e-01	4.618799e-02	0.0	2.858671e-01	4.616143e-02	0.0	2.833681e-01	4.613373e-02	0.0	2.808691e-01	4.610478e-02	0.0	2.783702e-01	4.607447e-02	0.0	2.758712e-01	4.604270e-02	0.0	2.733723e-01	4.600933e-02	0.0	2.708734e-01	4.597427e-02	0.0	2.683745e-01	4.593741e-02	0.0	2.658757e-01	4.589862e-02	0.0	2.633768e-01	4.585780e-02	0.0	2.608781e-01	4.581483e-02	0.0	2.583793e-01	4.576960e-02	0.0	2.558806e-01	4.572201e-02	0.0	2.533820e-01	4.567193e-02	0.0	2.508834e-01	4.561926e-02	0.0	2.483848e-01	4.556415e-02	0.0	2.458863e-01	4.550741e-02	0.0	2.433879e-01	4.544906e-02	0.0	2.408894e-01	4.538900e-02	0.0	2.383911e-01	4.532718e-02	0.0	2.358927e-01	4.526351e-02	0.0	2.333944e-01	4.519792e-02	0.0	2.308962e-01	4.513034e-02	0.0	2.283980e-01	4.506069e-02	0.0	2.258999e-01	4.498890e-02	0.0	2.234018e-01	4.491489e-02	0.0	2.209039e-01	4.483859e-02	0.0	2.184060e-01	4.475992e-02	0.0	2.159081e-01	4.467881e-02	0.0	2.134104e-01	4.459518e-02	0.0	2.109127e-01	4.450897e-02	0.0	2.084151e-01	4.442009e-02	0.0	2.059177e-01	4.432847e-02	0.0	2.034203e-01	4.423404e-02	0.0	2.009231e-01	4.413672e-02	0.0	1.984259e-01	4.403650e-02	0.0	1.959289e-01	4.393359e-02	0.0	1.934320e-01	4.382811e-02	0.0	1.909352e-01	4.372013e-02	0.0	1.884384e-01	4.360972e-02	0.0	1.859418e-01	4.349693e-02	0.0	1.834453e-01	4.338178e-02	0.0	1.809490e-01	4.326430e-02	0.0	1.784527e-01	4.314449e-02	0.0	1.759565e-01	4.302235e-02	0.0	1.734605e-01	4.289786e-02	0.0	1.709646e-01	4.277100e-02	0.0	1.684687e-01	4.264170e-02	0.0	1.659731e-01	4.250992e-02	0.0	1.634775e-01	4.237557e-02	0.0	1.609822e-01	4.223856e-02	0.0	1.584869e-01	4.209876e-02	0.0	1.559918e-01	4.195602e-02	0.0	1.534970e-01	4.181016e-02	0.0	1.510023e-01	4.166095e-02	0.0	1.485078e-01	4.150830e-02	0.0	1.460135e-01	4.135261e-02	0.0	1.435194e-01	4.119369e-02	0.0	1.410255e-01	4.103126e-02	0.0	1.385319e-01	4.086503e-02	0.0	1.360386e-01	4.069471e-02	0.0	1.335456e-01	4.052000e-02	0.0	1.310529e-01	4.034059e-02	0.0	1.285605e-01	4.015619e-02	0.0	1.260686e-01	3.996653e-02	0.0	1.235771e-01	3.977132e-02	0.0	1.210860e-01	3.957032e-02	0.0	1.185954e-01	3.936331e-02	0.0	1.161054e-01	3.915010e-02	0.0	1.136159e-01	3.893054e-02	0.0	1.111270e-01	3.870451e-02	0.0	1.086387e-01	3.847177e-02	0.0	1.061512e-01	3.823146e-02	0.0	1.036643e-01	3.798369e-02	0.0	1.011782e-01	3.772865e-02	0.0	9.869287e-02	3.746648e-02	0.0	9.620826e-02	3.719729e-02	0.0	9.372442e-02	3.692112e-02	0.0	9.124136e-02	3.663798e-02	0.0	8.875912e-02	3.634781e-02	0.0	8.627772e-02	3.605050e-02	0.0	8.379721e-02	3.574585e-02	0.0	8.131764e-02	3.543360e-02	0.0	7.883910e-02	3.511337e-02	0.0	7.636167e-02	3.478463e-02	0.0	7.388555e-02	3.444616e-02	0.0	7.141140e-02	3.409353e-02	0.0	6.893949e-02	3.372563e-02	0.0	6.646993e-02	3.334223e-02	0.0	6.400283e-02	3.294327e-02	0.0	6.153828e-02	3.252889e-02	0.0	5.907630e-02	3.209950e-02	0.0	5.661685e-02	3.165585e-02	0.0	5.415979e-02	3.119911e-02	0.0	5.170489e-02	3.073094e-02	0.0	4.925167e-02	3.025400e-02	0.0	4.679885e-02	2.977507e-02	0.0	4.434779e-02	2.928717e-02	0.0	4.190165e-02	2.877527e-02	0.0	3.946460e-02	2.822178e-02	0.0	3.704086e-02	2.761278e-02	0.0	3.463302e-02	2.694363e-02	0.0	3.224133e-02	2.621885e-02	0.0	2.986710e-02	2.543878e-02	0.0	2.750733e-02	2.461591e-02	0.0	2.515848e-02	2.376234e-02	0.0	2.281
[...]
POINT_DATA 13100

SCALARS Density double 1
LOOKUP_TABLE default
1.133639e+00	1.216634e+00	1.139056e+00	1.187407e+00	1.188431e+00	1.224542e+00	1.224714e+00	1.225052e+00	1.225247e+00	1.187620e+00	1.186715e+00	1.187449e+00	1.188319e+00	1.188835e+00	1.189083e+00	1.189481e+00	1.190113e+00	1.190948e+00	1.192144e+00	1.193134e+00	1.193804e+00	1.194296e+00	1.194288e+00	1.193930e+00	1.193476e+00	1.193254e+00	1.193325e+00	1.193706e+00	1.194250e+00	1.194853e+00	1.195343e+00	1.195845e+00	1.196269e+00	1.196596e+00	1.196979e+00	1.197276e+00	1.197510e+00	1.197458e+00	1.197242e+00	1.197100e+00	1.197151e+00	1.197366e+00	1.197604e+00	1.197916e+00	1.198180e+00	1.198498e+00	1.198825e+00	1.199082e+00	1.199321e+00	1.199563e+00	1.199799e+00	1.200019e+00	1.200219e+00	1.200375e+00	1.200501e+00	1.200668e+00	1.200785e+00	1.200916e+00	1.201052e+00	1.201237e+00	1.201335e+00	1.201439e+00	1.201563e+00	1.201640e+00	1.201729e+00	1.201800e+00	1.201878e+00	1.201986e+00	1.202057e+00	1.202059e+00	1.202027e+00	1.201932e+00	1.201826e+00	1.201843e+00	1.202191e+00	1.202475e+00	1.202689e+00	1.202881e+00	1.203023e+00	1.203134e+00	1.203214e+00	1.203312e+00	1.203407e+00	1.203505e+00	1.203574e+00	1.203655e+00	1.203727e+00	1.203791e+00	1.203868e+00	1.203940e+00	1.204005e+00	1.204063e+00	1.204119e+00	1.204177e+00	1.204256e+00	1.204316e+00	1.204390e+00	1.204488e+00	1.204606e+00	1.204690e+00	1.204722e+00	1.204765e+00	1.204819e+00	1.204843e+00	1.204874e+00	1.204897e+00	1.204926e+00	1.204982e+00	1.205033e+00	1.205058e+00	1.205108e+00	1.205154e+00	1.205177e+00	1.205207e+00	1.205297e+00	1.205323e+00	1.205370e+00	1.205390e+00	1.205466e+00	1.205571e+00	1.205732e+00	1.205935e+00	1.206110e+00	1.206284e+00	1.206459e+00	1.206615e+00	1.206777e+00	1.206963e+00	1.207138e+00	1.207300e+00	1.207461e+00	1.207619e+00	1.207772e+00	1.207895e+00	1.207994e+00	1.208085e+00	1.208162e+00	1.208183e+00	1.208182e+00	1.208136e+00	1.208060e+00	1.207988e+00	1.207926e+00	1.207793e+00	1.207697e+00	1.207619e+00	1.207503e+00	1.207425e+00	1.207333e+00	1.207224e+00	1.207134e+00	1.207058e+00	1.206981e+00	1.206947e+00	1.206931e+00	1.206924e+00	1.206937e+00	1.207010e+00	1.207115e+00	1.207204e+00	1.207276e+00	1.207353e+00	1.207434e+00	1.207534e+00	1.207625e+00	1.207724e+00	1.207833e+00	1.207936e+00	1.208024e+00	1.208116e+00	1.208189e+00	1.208270e+00	1.208356e+00	1.208420e+00	1.208486e+00	1.208559e+00	1.208590e+00	1.208615e+00	1.208591e+00	1.208578e+00	1.208595e+00	1.208605e+00	1.208631e+00	1.208645e+00	1.208668e+00	1.208682e+00	1.208687e+00	1.208695e+00	1.208726e+00	1.208746e+00	1.208746e+00	1.208751e+00	1.208760e+00	1.208760e+00	1.208774e+00	1.208781e+00	1.208832e+00	1.208876e+00	1.208880e+00	1.208915e+00	1.208953e+00	1.208965e+00	1.208980e+00	1.208975e+00	1.209006e+00	1.209020e+00	1.209042e+00	1.209062e+00	1.209080e+00	1.209088e+00	1.209115e+00	1.209119e+00	1.209148e+00	1.209162e+00	1.209190e+00	1.209191e+00	1.209215e+00	1.209222e+00	1.209238e+00	1.209257e+00	1.209260e+00	1.209280e+00	1.209270e+00	1.209272e+00	1.209260e+00	1.209261e+00	1.209214e+00	1.209191e+00	1.209191e+00	1.209189e+00	1.209204e+00	1.209198e+00	1.209203e+00	1.209203e+00	1.209213e+00	1.209186e+00	1.209181e+00	1.209213e+00	1.209249e+00	1.209294e+00	1.209281e+00	1.209282e+00	1.209260e+00	1.209293e+00	1.209318e+00	1.209313e+00	1.209284e+00	1.209280e+00	1.209266e+00	1.209246e+00	1.209237e+00	1.209234e+00	1.209216e+00	1.209228e+00	1.209208e+00	1.209213e+00	1.209234e+00	1.209228e+00	1.209244e+00	1.209300e+00	1.209316e+00	1.209339e+00	1.209359e+00	1.209317e+00	1.209328e+00	1.209329e+00	1.209292e+00	1.209256e+00	1.209268e+00	1.209238e+00	1.209238e+00	1.209220e+00	1.209169e+00	1.209168e+00	1.209133e+00	1.209024e+00	1.209013e+00	1.208966e+00	1.208962e+00	1.208912e+00	1.208877e+00	1.208821e+00	1.208795e+00	1.208715e+00	1.208674e+00	1.208612e+00	1.208599e+00	1.208556e+00	1.208548e+00	1.208495e+00	1.208495e+00	1.208417e+00	1.208391e+00	1.208294e+00	1.208268e+00	1.208227e+00	1.208223e+00	1.208201e+00	1.208277e+00	1.208281e+00	1.208157e+00	1.208193e+00	1.208145e+00	1.208146e+00	1.207987e+00	1.207920e+00	1.207821e+00	1.207756e+00	1.207584e+00	1.207380e+00	1.207340e+00	1.207462e+00	1.207442e+00	1.207554e+00	1.207585e+00	1.207629e+00	1.207644e+00	1.207519e+00	1.207504e+00	1.206992e+00	1.206216e+00	1.205431e+00	1.205017e+00	1.205150e+00	1.205867e+00	1.206651e+00	1.207856e+00	1.208986e+00	1.210365e+00	1.211417e+00	1.211568e+00	1.211138e+00	1.210486e+00	1.208660e+00	1.205687e+00	1.205592e+00	1.216914e+00	1.224539e+00	1.227449e+00	1.236756e+00	1.241999e+00	1.248350e+00	1.251863e+00	1.253999e+00	1.257358e+00	1.257494e+00	1.255633e+00	1.252869e+00	1.248277e+00	1.244601e+00	1.236899e+00	1.230691e+00	1.226587e+00	1.224102e+00	1.222931e+00	1.221366e+00	1.218965e+00	1.218455e+00	1.218694e+00	1.218694e+00	1.218391e+00	1.217961e+00	1.218086e+00	1.218053e+00	1.218024e+00	1.217911e+00	1.217671e+00	1.217663e+00	1.217741e+00	1.217802e+00	1.218229e+00	1.218516e+00	1.218718e+00	1.218708e+00	1.218794e+00	1.218720e+00	1.218554e+00	1.218694e+00	1.218749e+00	1.218725e+00	1.218779e+00	1.218902e+00	1.219055e+00	1.219210e+00	1.219299e+00	1.219394e+00	1.219417e+00	1.219512e+00	1.219547e+00	1.219679e+00	1.219768e+00	1.219913e+00	1.220017e+00	1.220029e+00	1.220029e+00	1.220134e+00	1.220201e+00	1.220270e+00	1.220355e+00	1.220426e+00	1.220522e+00	1.220667e+00	1.220738e+00	1.220869e+00	1.220963e+00	1.221080e+00	1.221169e+00	1.221295e+00	1.221392e+00	1.221472e+00	1.221564e+00	1.221620e+00	1.221707e+00	1.221778e+00	1.221872e+00	1.221945e+00	1.222009e+00	1.222094e+00	1.222156e+00	1.222242e+00	1.222299e+00	1.222382e+00	1.222431e+00	1.222498e+00	1.222543e+00	1.222606e+00	1.222657e+00	1.222737e+00	1.222809e+00	1.222845e+00	1.222894e+00	1.222937e+00	1.223002e+00	1.223079e+00	1.223133e+00	1.223201e+00	1.223260e+00	1.223346e+00	1.223403e+00	1.223456e+00	1.223544e+00	1.223611e+00	1.223661e+00	1.223730e+00	1.223804e+00	1.223851e+00	1.223911e+00	1.223971e+00	1.224044e+00	1.224105e+00	1.224153e+00	1.224227e+00	1.224284e+00	1.224313e+00	1.224362e+00	1.224441e+00	1.224506e+00	1.224573e+00	1.224634e+00	1.224722e+00	1.224796e+00	1.224864e+00	1.224923e+00	1.224997e+00	1.225065e+00	1.225143e+00	1.225204e+00	1.225269e+00	1.225326e+00	1.225404e+00	1.225462e+00	1.225509e+00	1.225562e+00	1.225608e+00	1.225672e+00	1.225731e+00	1.225789e+00	1.225838e+00	1.225881e+00	1.225930e+00	1.225987e+00	1.226050e+00	1.226103e+00	1.226157e+00	1.226201e+00	1.226243e+00	1.226291e+00	1.226356e+00	1.226404e+00	1.226450e+00	1.226488e+00	1.226545e+00	1.226593e+00	1.226651e+00	1.226717e+00	1.226784e+00	1.226842e+00	1.226893e+00	1.226947e+00	1.226991e+00	1.227062e+00	1.227115e+00	1.227177e+00	1.227233e+00	1.227286e+00	1.227338e+00	1.227404e+00	1.227461e+00	1.227516e+00	1.227572e+00	1.227641e+00	1.227685e+00	1.227745e+00	1.227796e+00	1.227853e+00	1.227921e+00	1.227969e+00	1.228012e+00	1.228065e+00	1.228100e+00	1.228142e+00	1.228191e+00	1.228264e+00	1.228318e+00	1.228376e+00	1.228417e+00	1.228471e+00	1.228502e+00	1.228536e+00	1.228590e+00	1.228674e+00	1.228724e+00	1.228804e+00	1.228855e+00	1.228903e+00	1.228952e+00	1.229003e+00	1.229039e+00	1.229084e+00	1.229130e+00	1.229180e+00	1.229246e+00	1.229302e+00	1.229336e+00	1.229381e+00	1.229437e+00	1.229487e+00	1.229515e+00	1.229559e+00	1.229622e+00	1.229704e+00	1.229786e+00	1.229851e+00	1.229911e+00	1.229968e+00	1.230017e+00	1.230055e+00	1.230096e+00	1.230126e+00	1.230171e+00	1.230221e+00	1.230263e+00	1.230312e+00	1.230387e+00	1.230445e+00	1.230483e+00	1.230524e+00	1.230569e+00	1.230620e+00	1.230651e+00	1.230742e+00	1.230860e+00	1.230954e+00	1.231019e+00	1.231097e+00	1.231153e+00	1.231221e+00	1.231264e+00	1.231307e+00	1.231386e+00	1.231424e+00	1.231476e+00	1.231538e+00	1.231596e+00	1.231633e+00	1.231698e+00	1.231760e+00	1.231838e+00	1.231929e+00	1.231967e+00	1.232016e+00	1.232111e+00	1.232189e+00	1.232351e+00	1.232452e+00	1.232557e+00	1.232760e+00	1.232942e+00	1.233094e+00	1.233114e+00	1.233272e+00	1.233417e+00	1.233575e+00	1.233768e+00	1.233883e+00	1.233982e+00	1.234100e+00	1.234280e+00	1.234401e+00	1.234548e+00	1.234663e+00	1.234622e+00	1.234709e+00	1.234645e+00	1.234689e+00	1.234771e+00	1.235044e+00	1.235301e+00	1.236277e+00	1.238437e+00	1.206196e+00	1.214057e+00	1.216787e+00	1.218355e+00	1.219258e+00	1.219630e+00	1.219795e+00	1.220047e+00	1.220258e+00	1.220725e+00	1.220939e+00	1.221268e+00	1.221638e+00	1.221733e+00	1.222072e+00	1.222216e+00	1.222259e+00	1.222525e+00	1.222800e+00	1.222979e+00	1.223098e+00	1.223198e+00	1.223516e+00	1.223895e+00	1.224045e+00	1.224338e+00	1.224651e+00	1.224863e+00	1.224969e+00	1.225283e+00	1.225549e+00	1.225714e+00	1.225837e+00	1.225967e+00	1.226078e+00	1.226208e+00	1.226296e+00	1.226417e+00	1.226600e+00	1.226715e+00	1.226860e+00	1.227072e+00	1.227162e+00	1.227398e+00	1.227453e+00	1.227619e+00	1.227863e+00	1.228003e+00	1.228275e+00	1.228354e+00	1.228825e+00	1.229153e+00	1.229029e+00	1.229110e+00	1.229581e+00	1.229914e+00	1.230211e+00	1.230392e+00	1.230428e+00	1.229033e+00	1.228866e+00	1.227609e+00	1.226166e+00	1.224421e+00	1.221405e+00	1.216878e+00	1.211857e+00	1.205160e+00	1.196701e+00	1.190061e+00	1.224612e+00	1.224674e+00	1.224712e+00	1.224725e+00	1.224730e+00	1.224734e+00	1.224728e+00	1.224723e+00	1.224722e+00	1.224717e+00	1.224714e+00	1.224711e+00	1.224707e+00	1.224706e+00	1.224709e+00	1.224728e+00	1.224736e+00	1.224751e+00	1.224773e+00	1.224795e+00	1.224820e+00	1.224842e+00	1.224863e+00	1.224886e+00	1.224911e+00	1.224936e+00	1.224960e+00	1.224985e+00	1.225009e+00	1.225030e+00	1.225076e+00	1.225098e+00	1.225121e+00	1.225140e+00	1.225160e+00	1.225180e+00	1.225198e+00	1.225211e+00	1.225223e+00	1.225236e+00	1.225247e+00	1.225251e+00	1.225257e+00	1.225255e+00	1.225253e+00	1.225237e+00	1.225228e+00	1.225221e+00	1.225209e+00	1.225198e+00	1.225182e+00	1.225166e+00	1.225145e+00	1.225121e+00	1.225081e+00	1.225019e+00	1.224906e+00	1.224735e+00	1.224564e+00	1.224507e+00	1.210996e+00	1.209700e+00	1.207624e+00	1.204178e+00	1.204480e+00	1.206662e+00	1.207016e+00	1.207073e+00	1.206679e+00	1.205935e+00	1.205140e+00	1.204421e+00	1.203482e+00	1.202777e+00	1.202260e+00	1.201685e+00	1.200923e+00	1.200264e+00	1.199446e+00	1.198549e+00	1.197448e+00	1.196703e+00	1.195938e+00	1.195017e+00	1.193933e+00	1.192921e+00	1.191856e+00	1.190755e+00	1.189607e+00	1.188238e+00	1.186338e+00	1.184101e+00	1.182511e+00	1.181668e+00	1.180294e+00	1.178265e+00	1.176325e+00	1.174898e+00	1.174007e+00	1.173716e+00	1.173093e+00	1.172312e+00	1.171200e+00	1.169839e+00	1.168927e+00	1.167898e+00	1.166405e+00	1.165203e+00	1.163861e+00	1.161554e+00	1.159389e+00	1.157914e+00	1.157000e+00	1.156509e+00	1.155488e+00	1.152586e+00	1.151155e+00	1.149665e+00	1.148749e+00	1.148954e+00	1.149945e+00	1.149524e+00	1.149998e+00	1.153076e+00	1.151080e+00	1.150741e+00	1.161701e+00	1.172395e+00	1.187345e+00	1.209712e+00	1.227007e+00	1.239158e+00	1.240282e+00	1.238571e+00	1.238321e+00	1.238263e+00	1.237833e+00	1.238069e+00	1.238238e+00	1.238250e+00	1.238582e+00	1.238528e+00	1.238632e+00	1.238969e+00	1.238978e+00	1.238775e+00	1.239085e+00	1.239003e+00	1.239100e+00	1.239208e+00	1.239106e+00	1.239152e+00	1.239245e+00	1.239192e+00	1.239405e+00	1.239308e+00	1.239325e+00	1.239296e+00	1.239266e+00	1.239290e+00	1.239230e+00	1.239286e+00	1.239185e+00	1.239226e+00	1.239213e+00	1.239154e+00	1.239242e+00	1.239106e+00	1.238996e+00	1.238977e+00	1.238978e+00	1.238998e+00	1.238965e+00	1.238972e+00	1.238824e+00	1.238804e+00	1.238715e+00	1.238666e+00	1.238627e+00	1.238573e+00	1.238580e+00	1.238492e+00	1.238423e+00	1.238322e+00	1.238385e+00	1.238397e+00	1.238318e+00	1.238363e+00	1.238295e+00	1.238213e+00	1.238128e+00	1.238084e+00	1.237970e+00	1.237963e+00	1.237813e+00	1.237760e+00	1.237703e+00	1.237562e+00	1.237553e+00	1.237455e+00	1.237383e+00	1.237363e+00	1.237295e+00	1.237371e+00	1.237306e+00	1.237211e+00	1.237071e+00	1.237028e+00	1.236904e+00	1.236776e+00	1.236713e+00	1.236482e+00	1.236465e+00	1.236374e+00	1.236416e+00	1.236425e+00	1.236292e+00	1.236239e+00	1.235945e+00	1.235524e+00	1.235202e+00	1.235317e+00	1.235219e+00	1.234936e+00	1.234650e+00	1.234459e+00	1.234477e+00	1.234326e+00	1.233935e+00	1.233991e+00	1.237168e+00	1.152874e+00	1.168517e+00	1.225357e+00	1.224577e+00	1.225687e+00	1.224254e+00	1.226337e+00	1.223557e+00	1.227480e+00	1.221989e+00	1.223013e+00	1.229377e+00	1.217723e+00	1.232355e+00	1.221518e+00	1.225006e+00	1.226576e+00	1.235201e+00	1.225580e+00	1.209628e+00	1.238727e+00	1.218431e+00	1.225788e+00	1.233911e+00	1.229544e+00	1.238766e+00	1.219410e+00	1.230487e+00	1.227670e+00	1.214790e+00	1.194636e+00	1.209084e+00	1.224898e+00	1.235982e+00	1.209347e+00	1.224744e+00	1.238342e+00	1.233258e+00	1.230816e+00	1.229673e+00	1.237427e+00	1.235442e+00	1.240571e+00	1.229243e+00	1.224900e+00	1.220435e+00	1.202912e+00	1.211991e+00	1.215918e+00	1.236873e+00	1.229555e+00	1.229737e+00	1.234782e+00	1.231365e+00	1.225238e+00	1.206990e+00	1.213368e+00	1.240099e+00	1.235341e+00	1.233442e+00	1.231920e+00	1.229792e+00	1.228735e+00	1.209316e+00	1.211721e+00	1.213654e+00	1.216470e+00	1.221960e+00	1.227287e+00	1.238508e+00	1.223767e+00	1.209918e+00	1.227867e+00	1.228150e+00	1.240147e+00	1.199242e+00	1.224287e+00	1.225565e+00	1.230693e+00	1.232703e+00	1.217881e+00	1.221908e+00	1.229533e+00	1.235910e+00	1.230555e+00	1.229755e+00	1.214012e+00	1.214829e+00	1.240558e+00	1.240329e+00	1.231875e+00	1.209752e+00	1.210214e+00	1.211763e+00	1.212337e+00	1.235961e+00	1.224209e+00	1.225179e+00	1.233518e+00	1.206822e+00	1.204596e+00	1.202170e+00	1.198044e+00	1.227895e+00	1.236901e+00	1.207609e+00	1.228692e+00	1.228275e+00	1.227358e+00	1.227150e+00	1.192829e+00	1.214868e+00	1.216384e+00	1.182524e+00	1.232246e+00	1.231495e+00	1.235661e+00	1.234145e+00	1.234587e+00	1.212282e+00	1.212734e+00	1.239349e+00	1.232437e+00	1.230649e+00	1.185753e+00	1.234983e+00	1.226087e+00	1.226311e+00	1.217988e+00	1.224936e+00	1.208077e+00	1.223647e+00	1.232267e+00	1.210025e+00	1.225929e+00	1.228366e+00	1.225554e+00	1.212700e+00	1.213055e+00	1.208692e+00	1.210290e+00	1.210814e+00	1.237363e+00	1.208874e+00	1.239582e+00	1.234800e+00	1.225182e+00	1.238897e+00	1.206142e+00	1.204974e+00	1.229883e+00	1.208893e+00	1.222478e+00	1.200320e+00	1.229293e+00	1.224688e+00	1.227555e+00	1.202596e+00	1.238221e+00	1.188960e+00	1.203802e+00	1.222571e+00	1.210875e+00	1.226152e+00	1.200575e+00	1.198394e+00	1.231523e+00	1.228122e+00	1.236506e+00	1.208906e+00	1.227578e+00	1.240163e+00	1.231337e+00	1.224604e+00	1.225381e+00	1.224531e+00	1.234631e+00	1.225431e+00	1.227264e+00	1.195771e+00	1.192163e+00	1.239614e+00	1.224661e+00	1.223127e+00	1.234922e+00	1.228513e+00	1.228013e+00	1.213782e+00	1.212683e+00	1.240076e+00	1.223894e+00	1.230669e+00	1.206779e+00	1.205993e+00	1.218674e+00	1.221194e+00	1.226839e+00	1.226445e+00	1.203346e+00	1.219400e+00	1.229463e+00	1.225455e+00	1.186993e+00	1.232947e+00	1.232286e+00	1.226508e+00	1.224831e+00	1.231220e+00	1.214166e+00	1.229282e+00	1.239850e+00	1.210609e+00	1.210859e+00	1.210905e+00	1.211176e+00	1.214594e+00	1.231392e+00	1.224241e+00	1.236275e+00	1.228482e+00	1.224095e+00	1.228118e+00	1.227599e+00	1.237387e+00	1.238793e+00	1.237370e+00	1.235447e+00	1.225227e+00	1.231661e+00	1.225851e+00	1.232210e+00	1.220157e+00	1.202687e+00	1.223925e+00	1.237218e+00	1.224674e+00	1.238699e+00	1.224274e+00	1.230454e+00	1.224471e+00	1.224063e+00	1.223678e+00	1.212864e+00	1.239396e+00	1.225397e+00	1.224817e+00	1.225423e+00	1.240157e+00	1.238946e+00	1.239669e+00	1.239447e+00	1.207892e+00	1.218044e+00	1.225048e+00	1.190218e+00	1.196107e+00	1.237629e+00	1.234539e+00	1.209437e+00	1.207002e+00	1.238638e+00	1.224972e+00	1.211569e+00	1.208787e+00	1.233675e+00	1.224054e+00	1.232022e+00	1.221679e+00	1.204924e+00	1.213847e+00	1.229517e+00	1.220974e+00	1.217320e+00	1.210902e+00	1.226498e+00	1.236212e+00	1.211484e+00	1.225818e+00	1.224994e+00	1.230616e+00	1.209689e+00	1.232036e+00	1.228240e+00	1.215271e+00	1.231070e+00	1.233303e+00	1.223219e+00	1.240230e+00	1.208154e+00	1.229820e+00	1.209453e+00	1.211584e+00	1.226724e+00	1.236735e+00	1.228728e+00	1.228372e+00	1.237680e+00	1.240499e+00	1.239848e+00	1.203807e+00	1.234605e+00	1.225260e+00	1.198745e+00	1.237054e+00	1.236185e+00	1.200933e+00	1.224608e+00	1.209951e+00	1.239694e+00	1.226925e+00	1.205215e+00	1.225060e+00	1.225100e+00	1.224735e+00	1.211654e+00	1.207972e+00	1.225217e+00	1.231041e+00	1.204237e+00	1.215398e+00	1.223477e+00	1.209230e+00	1.201774e+00	1.227086e+00	1.209613e+00	1.211316e+00	1.213699e+00	1.214028e+00	1.210955e+00	1.221849e+00	1.239311e+00	1.237321e+00	1.204226e+00	1.228997e+00	1.229947e+00	1.225018e+00	1.236574e+00	1.240753e+00	1.208093e+00	1.230116e+00	1.236676e+00	1.205720e+00	1.204916e+00	1.232977e+00	1.231163e+00	1.218415e+00	1.229885e+00	1.220171e+00	1.196320e+00	1.219225e+00	1.218506e+00	1.225542e+00	1.236409e+00	1.210014e+00	1.232151e+00	1.235848e+00	1.232704e+00	1.226554e+00	1.228724e+00	1.225926e+00	1.225276e+00	1.224702e+00	1.233433e+00	1.229434e+00	1.215378e+00	1.205849e+00	1.217667e+00	1.236797e+00	1.234930e+00	1.223724e+00	1.178871e+00	1.210849e+00	1.233908e+00	1.200468e+00	1.233837e+00	1.223969e+00	1.239548e+00	1.193329e+00	1.209912e+00	1.227197e+00	1.224926e+00	1.231407e+00	1.236870e+00	1.236133e+00	1.202725e+00	1.232217e+00	1.225833e+00	1.229147e+00	1.239045e+00	1.228819e+00	1.229803e+00	1.219698e+00	1.227812e+00	1.224850e+00	1.223551e+00	1.232254e+00	1.174005e+00	1.208751e+00	1.214812e+00	1.229978e+00	1.234478e+00	1.211432e+00	1.239324e+00	1.207822e+00	1.226189e+00	1.206080e+00	1.237685e+00	1.232718e+00	1.238163e+00	1.223026e+00	1.216350e+00	1.199524e+00	1.197577e+00	1.210760e+00	1.224152e+00	1.223962e+00	1.210467e+00	1.230986e+00	1.230631e+00	1.223147e+00	1.220620e+00	1.209664e+00	1.240625e+00	1.239302e+00	1.237017e+00	1.235295e+00	1.211309e+00	1.224653e+00	1.224682e+00	1.239641e+00	1.225036e+00	1.235327e+00	1.224116e+00	1.237171e+00	1.226227e+00	1.206587e+00	1.238633e+00	1.221091e+00	1.212922e+00	1.211381e+00	1.235586e+00	1.243370e+00	1.194580e+00	1.229477e+00	1.234626e+00	1.237862e+00	1.197539e+00	1.224497e+00	1.229984e+00	1.214689e+00	1.227209e+00	1.222099e+00	1.221653e+00	1.231437e+00	1.209940e+00	1.225862e+00	1.225150e+00	1.224526e+00	1.231905e+00	1.225532e+00	1.215241e+00	1.210047e+00	1.210160e+00	1.233977e+00	1.227345e+00	1.214167e+00	1.223630e+00	1.225093e+00	1.230348e+00	1.229310e+00	1.205412e+00	1.222430e+00	1.213741e+00	1.231670e+00	1.245608e+00	1.230594e+00	1.230678e+00	1.225281e+00	1.208141e+00	1.230426e+00	1.238541e+00	1.171315e+00	1.234553e+00	1.231076e+00	1.207136e+00	1.234204e+00	1.183466e+00	1.232330e+00	1.239543e+00	1.224518e+00	1.169196e+00	1.189100e+00	1.237441e+00	1.236992e+00	1.224497e+00	1.226226e+00	1.233551e+00	1.237942e+00	1.208487e+00	1.235301e+00	1.210769e+00	1.234121e+00	1.238507e+00	1.232538e+00	1.232071e+00	1.237820e+00	1.218173e+00	1.203125e+00	1.228831e+00	1.225267e+00	1.235518e+00	1.216361e+00	1.227860e+00	1.227963e+00	1.222092e+00	1.210124e+00	1.240130e+00	1.231235e+00	1.222910e+00	1.223357e+00	1.217777e+00	1.205234e+00	1.204759e+00	1.209198e+00	1.238428e+00	1.226743e+00	1.204005e+00	1.224782e+00	1.239008e+00	1.225222e+00	1.238397e+00	1.207699e+00	1.227461e+00	1.226455e+00	1.226055e+00	1.240106e+00	1.239799e+00	1.227981e+00	1.228489e+00	1.239547e+00	1.213422e+00	1.209051e+00	1.208886e+00	1.201982e+00	1.240544e+00	1.231628e+00	1.235743e+00	1.219529e+00	1.230192e+00	1.216055e+00	1.224785e+00	1.224424e+00	1.199866e+00	1.225831e+00	1.239571e+00	1.209690e+00	1.225532e+00	1.177800e+00	1.228683e+00	1.235149e+00	1.207763e+00	1.210331e+00	1.212058e+00	1.239973e+00	1.238602e+00	1.210250e+00	1.209712e+00	1.204459e+00	1.234343e+00	1.238741e+00	1.238358e+00	1.196624e+00	1.223566e+00	1.229928e+00	1.222630e+00	1.200066e+00	1.209780e+00	1.209149e+00	1.209829e+00	1.237199e+00	1.237058e+00	1.222246e+00	1.222099e+00	1.210079e+00	1.209966e+00	1.209687e+00	1.229771e+00	1.224096e+00	1.228883e+00	1.187558e+00	1.207907e+00	1.233252e+00	1.223685e+00	1.224326e+00	1.232555e+00	1.191449e+00	1.220029e+00	1.212008e+00	1.230367e+00	1.228225e+00	1.225563e+00	1.225466e+00	1.185388e+00	1.240374e+00	1.224684e+00	1.236805e+00	1.226386e+00	1.232830e+00	1.226827e+00	1.221886e+00	1.236913e+00	1.227113e+00	1.22460