# vtk DataFile Version 3.0
vtk output
ASCII
DATASET UNSTRUCTURED_GRID
POINTS 859 double
8.250000e-01	2.490000e-02	0.0	6.750000e-01	-2.870000e-02	0.0	8.250000e-01	2.410000e-02	0.0	1.044520e+00	-1.740390e-01	0.0	1.037880e+00	-1.812280e-01	0.0	8.225136e-01	2.515232e-02	0.0	8.200260e-01	2.539252e-02	0.0	8.175378e-01	2.562525e-02	0.0	8.150494e-01	2.585730e-02	0.0	8.125613e-01	2.609165e-02	0.0	8.100736e-01	2.633135e-02	0.0	8.075861e-01	2.657236e-02	0.0	8.050983e-01	2.680983e-02	0.0	8.026098e-01	2.704006e-02	0.0	8.001202e-01	2.725873e-02	0.0	7.976299e-01	2.746874e-02	0.0	7.951395e-01	2.767761e-02	0.0	7.926495e-01	2.789148e-02	0.0	7.901604e-01	2.811515e-02	0.0	7.876726e-01	2.835330e-02	0.0	7.851860e-01	2.860319e-02	0.0	7.826998e-01	2.885676e-02	0.0	7.802132e-01	2.910705e-02	0.0	7.777258e-01	2.934887e-02	0.0	7.752372e-01	2.957879e-02	0.0	7.727477e-01	2.979747e-02	0.0	7.702575e-01	3.000941e-02	0.0	7.677670e-01	3.021649e-02	0.0	7.652761e-01	3.042027e-02	0.0	7.627851e-01	3.062199e-02	0.0	7.602941e-01	3.082274e-02	0.0	7.578030e-01	3.102339e-02	0.0	7.553119e-01	3.122471e-02	0.0	7.528212e-01	3.142976e-02	0.0	7.503311e-01	3.164143e-02	0.0	7.478411e-01	3.185610e-02	0.0	7.453511e-01	3.206905e-02	0.0	7.428606e-01	3.227672e-02	0.0	7.403695e-01	3.247765e-02	0.0	7.378779e-01	3.267186e-02	0.0	7.353859e-01	3.286004e-02	0.0	7.328934e-01	3.304304e-02	0.0	7.304007e-01	3.322165e-02	0.0	7.279077e-01	3.339668e-02	0.0	7.254145e-01	3.356925e-02	0.0	7.229212e-01	3.374009e-02	0.0	7.204278e-01	3.390963e-02	0.0	7.179343e-01	3.407814e-02	0.0	7.154408e-01	3.424580e-02	0.0	7.129472e-01	3.441275e-02	0.0	7.104536e-01	3.457908e-02	0.0	7.079600e-01	3.474488e-02	0.0	7.054663e-01	3.491018e-02	0.0	7.029726e-01	3.507505e-02	0.0	7.004789e-01	3.523952e-02	0.0	6.979851e-01	3.540361e-02	0.0	6.954913e-01	3.556734e-02	0.0	6.929975e-01	3.573075e-02	0.0	6.905037e-01	3.589382e-02	0.0	6.880099e-01	3.605658e-02	0.0	6.855160e-01	3.621902e-02	0.0	6.830221e-01	3.638113e-02	0.0	6.805282e-01	3.654289e-02	0.0	6.780343e-01	3.670427e-02	0.0	6.755403e-01	3.686520e-02	0.0	6.730464e-01	3.702597e-02	0.0	6.705524e-01	3.718730e-02	0.0	6.680585e-01	3.734890e-02	0.0	6.655645e-01	3.750979e-02	0.0	6.630704e-01	3.766751e-02	0.0	6.605758e-01	3.781852e-02	0.0	6.580807e-01	3.796176e-02	0.0	6.555854e-01	3.809963e-02	0.0	6.530899e-01	3.823465e-02	0.0	6.505943e-01	3.836829e-02	0.0	6.480987e-01	3.850119e-02	0.0	6.456031e-01	3.863339e-02	0.0	6.431074e-01	3.876490e-02	0.0	6.406117e-01	3.889573e-02	0.0	6.381159e-01	3.902586e-02	0.0	6.356201e-01	3.915530e-02	0.0	6.331243e-01	3.928401e-02	0.0	6.306284e-01	3.941197e-02	0.0	6.281325e-01	3.953916e-02	0.0	6.256365e-01	3.966553e-02	0.0	6.231406e-01	3.979105e-02	0.0	6.206445e-01	3.991565e-02	0.0	6.181484e-01	4.003928e-02	0.0	6.156523e-01	4.016186e-02	0.0	6.131561e-01	4.028332e-02	0.0	6.106598e-01	4.040356e-02	0.0	6.081635e-01	4.052246e-02	0.0	6.056671e-01	4.063988e-02	0.0	6.031707e-01	4.075566e-02	0.0	6.006741e-01	4.086959e-02	0.0	5.981775e-01	4.098194e-02	0.0	5.956808e-01	4.109386e-02	0.0	5.931842e-01	4.120528e-02	0.0	5.906875e-01	4.131604e-02	0.0	5.881908e-01	4.142599e-02	0.0	5.856940e-01	4.153499e-02	0.0	5.831972e-01	4.164289e-02	0.0	5.807003e-01	4.174954e-02	0.0	5.782034e-01	4.185478e-02	0.0	5.757064e-01	4.195847e-02	0.0	5.732093e-01	4.206046e-02	0.0	5.707122e-01	4.216060e-02	0.0	5.682149e-01	4.225874e-02	0.0	5.657176e-01	4.235473e-02	0.0	5.632202e-01	4.244843e-02	0.0	5.607228e-01	4.253967e-02	0.0	5.582252e-01	4.262832e-02	0.0	5.557275e-01	4.271422e-02	0.0	5.532297e-01	4.279722e-02	0.0	5.507319e-01	4.287717e-02	0.0	5.482339e-01	4.295335e-02	0.0	5.457357e-01	4.302426e-02	0.0	5.432375e-01	4.309033e-02	0.0	5.407391e-01	4.315208e-02	0.0	5.382406e-01	4.321004e-02	0.0	5.357421e-01	4.326471e-02	0.0	5.332434e-01	4.331664e-02	0.0	5.307448e-01	4.336634e-02	0.0	5.282461e-01	4.341433e-02	0.0	5.257474e-01	4.346115e-02	0.0	5.232487e-01	4.350731e-02	0.0	5.207499e-01	4.355333e-02	0.0	5.182512e-01	4.359975e-02	0.0	5.157525e-01	4.364709e-02	0.0	5.132539e-01	4.369586e-02	0.0	5.107552e-01	4.374660e-02	0.0	5.082566e-01	4.379982e-02	0.0	5.057581e-01	4.385606e-02	0.0	5.032597e-01	4.391583e-02	0.0	5.007614e-01	4.397966e-02	0.0	4.982631e-01	4.404807e-02	0.0	4.957651e-01	4.412106e-02	0.0	4.932671e-01	4.419809e-02	0.0	4.907692e-01	4.427859e-02	0.0	4.882715e-01	4.436201e-02	0.0	4.857738e-01	4.444779e-02	0.0	4.832762e-01	4.453535e-02	0.0	4.807786e-01	4.462415e-02	0.0	4.782811e-01	4.471362e-02	0.0	4.757835e-01	4.480321e-02	0.0	4.732860e-01	4.489235e-02	0.0	4.707884e-01	4.498048e-02	0.0	4.682907e-01	4.506704e-02	0.0	4.657930e-01	4.515148e-02	0.0	4.632952e-01	4.523322e-02	0.0	4.607973e-01	4.531172e-02	0.0	4.582993e-01	4.538641e-02	0.0	4.558011e-01	4.545672e-02	0.0	4.533028e-01	4.552210e-02	0.0	4.508044e-01	4.558198e-02	0.0	4.483058e-01	4.563631e-02	0.0	4.458072e-01	4.568647e-02	0.0	4.433085e-01	4.573283e-02	0.0	4.408097e-01	4.577564e-02	0.0	4.383108e-01	4.581518e-02	0.0	4.358120e-01	4.585169e-02	0.0	4.333130e-01	4.588545e-02	0.0	4.308141e-01	4.591671e-02	0.0	4.283151e-01	4.594574e-02	0.0	4.258161e-01	4.597280e-02	0.0	4.233171e-01	4.599815e-02	0.0	4.208180e-01	4.602205e-02	0.0	4.183190e-01	4.604476e-02	0.0	4.158199e-01	4.606656e-02	0.0	4.133209e-01	4.608769e-02	0.0	4.108218e-01	4.610842e-02	0.0	4.083228e-01	4.612902e-02	0.0	4.058237e-01	4.614975e-02	0.0	4.033246e-01	4.617086e-02	0.0	4.008256e-01	4.619262e-02	0.0	3.983265e-01	4.621500e-02	0.0	3.958275e-01	4.623715e-02	0.0	3.933284e-01	4.625892e-02	0.0	3.908294e-01	4.628024e-02	0.0	3.883303e-01	4.630103e-02	0.0	3.858312e-01	4.632123e-02	0.0	3.833322e-01	4.634075e-02	0.0	3.808331e-01	4.635952e-02	0.0	3.783340e-01	4.637747e-02	0.0	3.758349e-01	4.639452e-02	0.0	3.733358e-01	4.641059e-02	0.0	3.708367e-01	4.642562e-02	0.0	3.683376e-01	4.643952e-02	0.0	3.658385e-01	4.645222e-02	0.0	3.633394e-01	4.646365e-02	0.0	3.608402e-01	4.647373e-02	0.0	3.583411e-01	4.648238e-02	0.0	3.558420e-01	4.648954e-02	0.0	3.533428e-01	4.649512e-02	0.0	3.508437e-01	4.649906e-02	0.0	3.483445e-01	4.650138e-02	0.0	3.458454e-01	4.650243e-02	0.0	3.433462e-01	4.650223e-02	0.0	3.408471e-01	4.650078e-02	0.0	3.383479e-01	4.649807e-02	0.0	3.358488e-01	4.649413e-02	0.0	3.333496e-01	4.648893e-02	0.0	3.308505e-01	4.648248e-02	0.0	3.283514e-01	4.647478e-02	0.0	3.258522e-01	4.646584e-02	0.0	3.233531e-01	4.645564e-02	0.0	3.208540e-01	4.644420e-02	0.0	3.183549e-01	4.643150e-02	0.0	3.158558e-01	4.641756e-02	0.0	3.133567e-01	4.640237e-02	0.0	3.108576e-01	4.638593e-02	0.0	3.083585e-01	4.636824e-02	0.0	3.058594e-01	4.634930e-02	0.0	3.033603e-01	4.632911e-02	0.0	3.008613e-01	4.630768e-02	0.0	2.983622e-01	4.628515e-02	0.0	2.958632e-01	4.626200e-02	0.0	2.933641e-01	4.623817e-02	0.0	2.908651e-01	4.621353e-02	0.0	2.883661e-01	4.618799e-02	0.0	2.858671e-01	4.616143e-02	0.0	2.833681e-01	4.613373e-02	0.0	2.808691e-01	4.610478e-02	0.0	2.783702e-01	4.607447e-02	0.0	2.758712e-01	4.604270e-02	0.0	2.733723e-01	4.600933e-02	0.0	2.708734e-01	4.597427e-02	0.0	2.683745e-01	4.593741e-02	0.0	2.658757e-01	4.589862e-02	0.0	2.633768e-01	4.585780e-02	0.0	2.608781e-01	4.581483e-02	0.0	2.583793e-01	4.576960e-02	0.0	2.558806e-01	4.572201e-02	0.0	2.533820e-01	4.567193e-02	0.0	2.508834e-01	4.561926e-02	0.0	2.483848e-01	4.556415e-02	0.0	2.458863e-01	4.550741e-02	0.0	2.433879e-01	4.544906e-02	0.0	2.408894e-01	4.538900e-02	0.0	2.383911e-01	4.532718e-02	0.0	2.358927e-01	4.526351e-02	0.0	2.333944e-01	4.519792e-02	0.0	2.308962e-01	4.513034e-02	0.0	2.283980e-01	4.506069e-02	0.0	2.258999e-01	4.498890e-02	0.0	2.234018e-01	4.491489e-02	0.0	2.209039e-01	4.483859e-02	0.0	2.184060e-01	4.475992e-02	0.0	2.159081e-01	4.467881e-02	0.0	2.134104e-01	4.459518e-02	0.0	2.109127e-01	4.450897e-02	0.0	2.084151e-01	4.442009e-02	0.0	2.059177e-01	4.432847e-02	0.0	2.034203e-01	4.423404e-02	0.0	2.009231e-01	4.413672e-02	0.0	1.984259e-01	4.403650e-02	0.0	1.959289e-01	4.393359e-02	0.0	1.934320e-01	4.382811e-02	0.0	1.909352e-01	4.372013e-02	0.0	1.884384e-01	4.360972e-02	0.0	1.859418e-01	4.349693e-02	0.0	1.834453e-01	4.338178e-02	0.0	1.809490e-01	4.326430e-02	0.0	1.784527e-01	4.314449e-02	0.0	1.759565e-01	4.302235e-02	0.0	1.734605e-01	4.289786e-02	0.0	1.709646e-01	4.277100e-02	0.0	1.684687e-01	4.264170e-02	0.0	1.659731e-01	4.250992e-02	0.0	1.634775e-01	4.237557e-02	0.0	1.609822e-01	4.223856e-02	0.0	1.584869e-01	4.209876e-02	0.0	1.559918e-01	4.195602e-02	0.0	1.534970e-01	4.181016e-02	0.0	1.510023e-01	4.166095e-02	0.0	1.485078e-01	4.150830e-02	0.0	1.460135e-01	4.135261e-02	0.0	1.435194e-01	4.119369e-02	0.0	1.410255e-01	4.103126e-02	0.0	1.385319e-01	4.086503e-02	0.0	1.360386e-01	4.069471e-02	0.0	1.335456e-01	4.052000e-02	0.0	1.310529e-01	4.034059e-02	0.0	1.285605e-01	4.015619e-02	0.0	1.260686e-01	3.996653e-02	0.0	1.235771e-01	3.977132e-02	0.0	1.210860e-01	3.957032e-02	0.0	1.185954e-01	3.936331e-02	0.0	1.161054e-01	3.915010e-02	0.0	1.136159e-01	3.893054e-02	0.0	1.111270e-01	3.870451e-02	0.0	1.086387e-01	3.847177e-02	0.0	1.061512e-01	3.823146e-02	0.0	1.036643e-01	3.798369e-02	0.0	1.011782e-01	3.772865e-02	0.0	9.869287e-02	3.746648e-02	0.0	9.620826e-02	3.719729e-02	0.0	9.372442e-02	3.692112e-02	0.0	9.124136e-02	3.663798e-02	0.0	8.875912e-02	3.634781e-02	0.0	8.627772e-02	3.605050e-02	0.0	8.379721e-02	3.574585e-02	0.0	8.131764e-02	3.543360e-02	0.0	7.883910e-02	3.511337e-02	0.0	7.636167e-02	3.478463e-02	0.0	7.388555e-02	3.444616e-02	0.0	7.141140e-02	3.409353e-02	0.0	6.893949e-02	3.372563e-02	0.0	6.646993e-02	3.334223e-02	0.0	6.400283e-02	3.294327e-02	0.0	6.153828e-02	3.252889e-02	0.0	5.907630e-02	3.209950e-02	0.0	5.661685e-02	3.165585e-02	0.0	5.415979e-02	3.119911e-02	0.0	5.170489e-02	3.073094e-02	0.0	4.925167e-02	3.025400e-02	0.0	4.679885e-02	2.977507e-02	0.0	4.434779e-02	2.928717e-02	0.0	4.190165e-02	2.877527e-02	0.0	3.946460e-02	2.822178e-02	0.0	3.704086e-02	2.761278e-02	0.0	3.463302e-02	2.694363e-02	0.0	3.224133e-02	2.621885e-02	0.0	2.986710e-02	2.543878e-02	0.0	2.750733e-02	2.461591e-02	0.0	2.515848e-02	2.376234e-02	0.0	2.281867e-02	2.288429e-02	0.0	2.048696e-02	2.198492e-02	0.0	1.816319e-02	2.106526e-02	0.0	1.584808e-02	2.012399e-02	0.0	1.354433e
[...]
POINT_DATA 859

SCALARS Density double 1
LOOKUP_TABLE default
1.133682e+00	1.218073e+00	1.141198e+00	1.186477e+00	1.186581e+00	1.186045e+00	1.185061e+00	1.185678e+00	1.186453e+00	1.186882e+00	1.187071e+00	1.187409e+00	1.187972e+00	1.188727e+00	1.189821e+00	1.190725e+00	1.191320e+00	1.191751e+00	1.191705e+00	1.191330e+00	1.190867e+00	1.190633e+00	1.190673e+00	1.191003e+00	1.191496e+00	1.192046e+00	1.192484e+00	1.192935e+00	1.193305e+00	1.193589e+00	1.193927e+00	1.194183e+00	1.194384e+00	1.194309e+00	1.194075e+00	1.193918e+00	1.193946e+00	1.194130e+00	1.194336e+00	1.194604e+00	1.194825e+00	1.195104e+00	1.195388e+00	1.195612e+00	1.195817e+00	1.196028e+00	1.196228e+00	1.196415e+00	1.196579e+00	1.196708e+00	1.196805e+00	1.196944e+00	1.197035e+00	1.197138e+00	1.197246e+00	1.197402e+00	1.197473e+00	1.197551e+00	1.197651e+00	1.197702e+00	1.197769e+00	1.197814e+00	1.197866e+00	1.197949e+00	1.197994e+00	1.197969e+00	1.197919e+00	1.197804e+00	1.197677e+00	1.197673e+00	1.197997e+00	1.198242e+00	1.198421e+00	1.198587e+00	1.198697e+00	1.198784e+00	1.198835e+00	1.198910e+00	1.198975e+00	1.199048e+00	1.199091e+00	1.199152e+00	1.199197e+00	1.199237e+00	1.199292e+00	1.199341e+00	1.199380e+00	1.199418e+00	1.199452e+00	1.199488e+00	1.199547e+00	1.199586e+00	1.199641e+00	1.199714e+00	1.199811e+00	1.199873e+00	1.199880e+00	1.199900e+00	1.199935e+00	1.199935e+00	1.199945e+00	1.199944e+00	1.199949e+00	1.199984e+00	1.200011e+00	1.200009e+00	1.200045e+00	1.200071e+00	1.200069e+00	1.200077e+00	1.200152e+00	1.200152e+00	1.200175e+00	1.200172e+00	1.200223e+00	1.200301e+00	1.200437e+00	1.200613e+00	1.200757e+00	1.200908e+00	1.201056e+00	1.201185e+00	1.201326e+00	1.201483e+00	1.201623e+00	1.201757e+00	1.201896e+00	1.202026e+00	1.202155e+00	1.202255e+00	1.202329e+00	1.202398e+00	1.202447e+00	1.202445e+00	1.202424e+00	1.202358e+00	1.202262e+00	1.202172e+00	1.202090e+00	1.201926e+00	1.201808e+00	1.201712e+00	1.201568e+00	1.201470e+00	1.201353e+00	1.201215e+00	1.201102e+00	1.201004e+00	1.200903e+00	1.200843e+00	1.200805e+00	1.200773e+00	1.200766e+00	1.200808e+00	1.200888e+00	1.200942e+00	1.200988e+00	1.201033e+00	1.201091e+00	1.201163e+00	1.201228e+00	1.201297e+00	1.201376e+00	1.201445e+00	1.201510e+00	1.201574e+00	1.201621e+00	1.201681e+00	1.201743e+00	1.201777e+00	1.201815e+00	1.201863e+00	1.201864e+00	1.201866e+00	1.201810e+00	1.201770e+00	1.201756e+00	1.201734e+00	1.201735e+00	1.201718e+00	1.201717e+00	1.201703e+00	1.201677e+00	1.201657e+00	1.201666e+00	1.201656e+00	1.201617e+00	1.201598e+00	1.201577e+00	1.201544e+00	1.201525e+00	1.201493e+00	1.201508e+00	1.201527e+00	1.201495e+00	1.201493e+00	1.201499e+00	1.201464e+00	1.201450e+00	1.201409e+00	1.201414e+00	1.201387e+00	1.201382e+00	1.201368e+00	1.201350e+00	1.201317e+00	1.201307e+00	1.201271e+00	1.201273e+00	1.201245e+00	1.201235e+00	1.201188e+00	1.201180e+00	1.201147e+00	1.201130e+00	1.201118e+00	1.201083e+00	1.201070e+00	1.201020e+00	1.200989e+00	1.200930e+00	1.200890e+00	1.200788e+00	1.200729e+00	1.200694e+00	1.200650e+00	1.200629e+00	1.200579e+00	1.200543e+00	1.200492e+00	1.200458e+00	1.200377e+00	1.200335e+00	1.200329e+00	1.200316e+00	1.200318e+00	1.200254e+00	1.200215e+00	1.200144e+00	1.200133e+00	1.200101e+00	1.200055e+00	1.199969e+00	1.199926e+00	1.199856e+00	1.199765e+00	1.199693e+00	1.199645e+00	1.199560e+00	1.199520e+00	1.199434e+00	1.199393e+00	1.199360e+00	1.199289e+00	1.199246e+00	1.199249e+00	1.199195e+00	1.199170e+00	1.199125e+00	1.199005e+00	1.198964e+00	1.198894e+00	1.198775e+00	1.198665e+00	1.198606e+00	1.198500e+00	1.198443e+00	1.198335e+00	1.198190e+00	1.198122e+00	1.198009e+00	1.197799e+00	1.197713e+00	1.197567e+00	1.197494e+00	1.197352e+00	1.197234e+00	1.197067e+00	1.196941e+00	1.196739e+00	1.196617e+00	1.196455e+00	1.196361e+00	1.196202e+00	1.196096e+00	1.195933e+00	1.195834e+00	1.195606e+00	1.195481e+00	1.195236e+00	1.195080e+00	1.194887e+00	1.194744e+00	1.194578e+00	1.194506e+00	1.194362e+00	1.194067e+00	1.193982e+00	1.193756e+00	1.193615e+00	1.193266e+00	1.193027e+00	1.192722e+00	1.192467e+00	1.192043e+00	1.191587e+00	1.191340e+00	1.191260e+00	1.190985e+00	1.190843e+00	1.190572e+00	1.190396e+00	1.190109e+00	1.189662e+00	1.189329e+00	1.188373e+00	1.187089e+00	1.185713e+00	1.184703e+00	1.184241e+00	1.184575e+00	1.184991e+00	1.185875e+00	1.186656e+00	1.187639e+00	1.188120e+00	1.187530e+00	1.186152e+00	1.184201e+00	1.180435e+00	1.174621e+00	1.172569e+00	1.185856e+00	1.194131e+00	1.197450e+00	1.210205e+00	1.218557e+00	1.228779e+00	1.237576e+00	1.244072e+00	1.252701e+00	1.255252e+00	1.256166e+00	1.255079e+00	1.253638e+00	1.254341e+00	1.250713e+00	1.247386e+00	1.243456e+00	1.240850e+00	1.239435e+00	1.237648e+00	1.235085e+00	1.234143e+00	1.233720e+00	1.233354e+00	1.232711e+00	1.231950e+00	1.231698e+00	1.231314e+00	1.231106e+00	1.230716e+00	1.230187e+00	1.229998e+00	1.229776e+00	1.229575e+00	1.229759e+00	1.229802e+00	1.229730e+00	1.229536e+00	1.229487e+00	1.229267e+00	1.228936e+00	1.228902e+00	1.228811e+00	1.228641e+00	1.228571e+00	1.228530e+00	1.228547e+00	1.228561e+00	1.228487e+00	1.228436e+00	1.228361e+00	1.228337e+00	1.228283e+00	1.228296e+00	1.228270e+00	1.228296e+00	1.228298e+00	1.228218e+00	1.228155e+00	1.228153e+00	1.228138e+00	1.228141e+00	1.228134e+00	1.228112e+00	1.228125e+00	1.228172e+00	1.228180e+00	1.228237e+00	1.228257e+00	1.228282e+00	1.228302e+00	1.228356e+00	1.228374e+00	1.228398e+00	1.228427e+00	1.228422e+00	1.228439e+00	1.228454e+00	1.228493e+00	1.228502e+00	1.228508e+00	1.228531e+00	1.228543e+00	1.228569e+00	1.228583e+00	1.228615e+00	1.228620e+00	1.228633e+00	1.228638e+00	1.228652e+00	1.228659e+00	1.228690e+00	1.228709e+00	1.228712e+00	1.228715e+00	1.228708e+00	1.228729e+00	1.228756e+00	1.228770e+00	1.228792e+00	1.228817e+00	1.228862e+00	1.228875e+00	1.228894e+00	1.228938e+00	1.228964e+00	1.228981e+00	1.229016e+00	1.229050e+00	1.229069e+00	1.229095e+00	1.229120e+00	1.229153e+00	1.229183e+00	1.229192e+00	1.229217e+00	1.229239e+00	1.229244e+00	1.229265e+00	1.229305e+00	1.229340e+00	1.229375e+00	1.229408e+00	1.229456e+00	1.229499e+00	1.229538e+00	1.229574e+00	1.229619e+00	1.229659e+00	1.229705e+00	1.229743e+00	1.229783e+00	1.229818e+00	1.229864e+00	1.229896e+00	1.229914e+00	1.229937e+00	1.229959e+00	1.229996e+00	1.230029e+00	1.230058e+00	1.230084e+00	1.230105e+00	1.230130e+00	1.230162e+00	1.230197e+00	1.230230e+00	1.230260e+00	1.230283e+00	1.230305e+00	1.230330e+00	1.230369e+00	1.230396e+00	1.230422e+00	1.230443e+00	1.230472e+00	1.230499e+00	1.230532e+00	1.230574e+00	1.230615e+00	1.230652e+00	1.230682e+00	1.230715e+00	1.230743e+00	1.230789e+00	1.230825e+00	1.230865e+00	1.230903e+00	1.230938e+00	1.230973e+00	1.231017e+00	1.231056e+00	1.231093e+00	1.231130e+00	1.231176e+00	1.231206e+00	1.231244e+00	1.231277e+00	1.231314e+00	1.231359e+00	1.231389e+00	1.231417e+00	1.231452e+00	1.231474e+00	1.231500e+00	1.231532e+00	1.231581e+00	1.231617e+00	1.231657e+00	1.231686e+00	1.231722e+00	1.231741e+00	1.231761e+00	1.231797e+00	1.231862e+00	1.231900e+00	1.231960e+00	1.231997e+00	1.232031e+00	1.232065e+00	1.232099e+00	1.232124e+00	1.232153e+00	1.232185e+00	1.232218e+00	1.232263e+00	1.232305e+00	1.232325e+00	1.232357e+00	1.232396e+00	1.232435e+00	1.232452e+00	1.232485e+00	1.232530e+00	1.232599e+00	1.232669e+00	1.232723e+00	1.232771e+00	1.232815e+00	1.232853e+00	1.232879e+00	1.232909e+00	1.232929e+00	1.232959e+00	1.232994e+00	1.233026e+00	1.233062e+00	1.233117e+00	1.233163e+00	1.233187e+00	1.233218e+00	1.233251e+00	1.233292e+00	1.233312e+00	1.233392e+00	1.233499e+00	1.233584e+00	1.233638e+00	1.233704e+00	1.233749e+00	1.233806e+00	1.233840e+00	1.233873e+00	1.233940e+00	1.233968e+00	1.234007e+00	1.234060e+00	1.234107e+00	1.234135e+00	1.234188e+00	1.234238e+00	1.234306e+00	1.234386e+00	1.234419e+00	1.234459e+00	1.234546e+00	1.234616e+00	1.234772e+00	1.234868e+00	1.234966e+00	1.235161e+00	1.235337e+00	1.235484e+00	1.235499e+00	1.235653e+00	1.235794e+00	1.235948e+00	1.236132e+00	1.236246e+00	1.236341e+00	1.236457e+00	1.236630e+00	1.236749e+00	1.236891e+00	1.237000e+00	1.236950e+00	1.237025e+00	1.236957e+00	1.236997e+00	1.237081e+00	1.237365e+00	1.237640e+00	1.238651e+00	1.240895e+00	1.207103e+00	1.215301e+00	1.218167e+00	1.219814e+00	1.220759e+00	1.221152e+00	1.221329e+00	1.221595e+00	1.221818e+00	1.222308e+00	1.222533e+00	1.222879e+00	1.223268e+00	1.223368e+00	1.223725e+00	1.223877e+00	1.223924e+00	1.224205e+00	1.224494e+00	1.224683e+00	1.224810e+00	1.224916e+00	1.225252e+00	1.225652e+00	1.225811e+00	1.226120e+00	1.226451e+00	1.226675e+00	1.226788e+00	1.227119e+00	1.227398e+00	1.227571e+00	1.227700e+00	1.227835e+00	1.227951e+00	1.228086e+00	1.228178e+00	1.228305e+00	1.228492e+00	1.228613e+00	1.228767e+00	1.228992e+00	1.229086e+00	1.229329e+00	1.229388e+00	1.229557e+00	1.229807e+00	1.229951e+00	1.230230e+00	1.230313e+00	1.230794e+00	1.231131e+00	1.231017e+00	1.231102e+00	1.231587e+00	1.231938e+00	1.232248e+00	1.232443e+00	1.232494e+00	1.231120e+00	1.230962e+00	1.229723e+00	1.228300e+00	1.226566e+00	1.223562e+00	1.219029e+00	1.213991e+00	1.207264e+00	1.198735e+00	1.192092e+00	1.208761e+00	1.207581e+00	1.205696e+00	1.202611e+00	1.202956e+00	1.204981e+00	1.205296e+00	1.205343e+00	1.204982e+00	1.204298e+00	1.203579e+00	1.202931e+00	1.202073e+00	1.201432e+00	1.200972e+00	1.200450e+00	1.199744e+00	1.199133e+00	1.198381e+00	1.197548e+00	1.196522e+00	1.195839e+00	1.195147e+00	1.194293e+00	1.193292e+00	1.192371e+00	1.191380e+00	1.190362e+00	1.189301e+00	1.188038e+00	1.186269e+00	1.184175e+00	1.182701e+00	1.181939e+00	1.180655e+00	1.178747e+00	1.176928e+00	1.175585e+00	1.174729e+00	1.174451e+00	1.173824e+00	1.173034e+00	1.171964e+00	1.170655e+00	1.169771e+00	1.168755e+00	1.167306e+00	1.166118e+00	1.164794e+00	1.162577e+00	1.160508e+00	1.159044e+00	1.158141e+00	1.157604e+00	1.156579e+00	1.153790e+00	1.152317e+00	1.150814e+00	1.149900e+00	1.150085e+00	1.150879e+00	1.150404e+00	1.150742e+00	1.153695e+00	1.152018e+00	1.151941e+00	1.163131e+00	1.174233e+00	1.189364e+00	1.211930e+00	1.229449e+00	1.241639e+00	1.242661e+00	1.240956e+00	1.240705e+00	1.240660e+00	1.240182e+00	1.240388e+00	1.240626e+00	1.240652e+00	1.240977e+00	1.240915e+00	1.241021e+00	1.241371e+00	1.241378e+00	1.241164e+00	1.241479e+00	1.241390e+00	1.241486e+00	1.241589e+00	1.241476e+00	1.241513e+00	1.241602e+00	1.241540e+00	1.241749e+00	1.241643e+00	1.241653e+00	1.241615e+00	1.241574e+00	1.241592e+00	1.241523e+00	1.241572e+00	1.241460e+00	1.241495e+00	1.241474e+00	1.241405e+00	1.241488e+00	1.241342e+00	1.241223e+00	1.241197e+00	1.241190e+00	1.241204e+00	1.241162e+00	1.241163e+00	1.241004e+00	1.240975e+00	1.240877e+00	1.240818e+00	1.240770e+00	1.240708e+00	1.240708e+00	1.240611e+00	1.240536e+00	1.240426e+00	1.240483e+00	1.240489e+00	1.240401e+00	1.240440e+00	1.240364e+00	1.240272e+00	1.240177e+00	1.240124e+00	1.240000e+00	1.239984e+00	1.239823e+00	1.239761e+00	1.239695e+00	1.239542e+00	1.239524e+00	1.239415e+00	1.239334e+00	1.239306e+00	1.239230e+00	1.239302e+00	1.239230e+00	1.239122e+00	1.238968e+00	1.238913e+00	1.238776e+00	1.238633e+00	1.238555e+00	1.238305e+00	1.238273e+00	1.238174e+00	1.238211e+00	1.238211e+00	1.238060e+00	1.237988e+00	1.237665e+00	1.237205e+00	1.236852e+00	1.236955e+00	1.236834e+00	1.236514e+00	1.236188e+00	1.235965e+00	1.235955e+00	1.235748e+00	1.235281e+00	1.235249e+00	1.238373e+00	1.149189e+00	1.167644e+00	
VECTORS Momentum double