# vtk DataFile Version 3.0
vtk output
ASCII
DATASET UNSTRUCTURED_GRID
POINTS 13100 double
8.250000e-01	2.490000e-02	0.0	6.750000e-01	-2.870000e-02	0.0	8.250000e-01	2.410000e-02	0.0	1.044520e+00	-1.740390e-01	0.0	1.037880e+00	-1.812280e-01	0.0	3.000000e+01	0.000000e+00	0.0	0.000000e+00	3.000000e+01	0.0	-3.000000e+01	0.000000e+00	0.0	0.000000e+00	-3.000000e+01	0.0	8.225136e-01	2.515232e-02	0.0	8.200260e-01	2.539252e-02	0.0	8.175378e-01	2.562525e-02	0.0	8.150494e-01	2.585730e-02	0.0	8.125613e-01	2.609165e-02	0.0	8.100736e-01	2.633135e-02	0.0	8.075861e-01	2.657236e-02	0.0	8.050983e-01	2.680983e-02	0.0	8.026098e-01	2.704006e-02	0.0	8.001202e-01	2.725873e-02	0.0	7.976299e-01	2.746874e-02	0.0	7.951395e-01	2.767761e-02	0.0	7.926495e-01	2.789148e-02	0.0	7.901604e-01	2.811515e-02	0.0	7.876726e-01	2.835330e-02	0.0	7.851860e-01	2.860319e-02	0.0	7.826998e-01	2.885676e-02	0.0	7.802132e-01	2.910705e-02	0.0	7.777258e-01	2.934887e-02	0.0	7.752372e-01	2.957879e-02	0.0	7.727477e-01	2.979747e-02	0.0	7.702575e-01	3.000941e-02	0.0	7.677670e-01	3.021649e-02	0.0	7.652761e-01	3.042027e-02	0.0	7.627851e-01	3.062199e-02	0.0	7.602941e-01	3.082274e-02	0.0	7.578030e-01	3.102339e-02	0.0	7.553119e-01	3.122471e-02	0.0	7.528212e-01	3.142976e-02	0.0	7.503311e-01	3.164143e-02	0.0	7.478411e-01	3.185610e-02	0.0	7.453511e-01	3.206905e-02	0.0	7.428606e-01	3.227672e-02	0.0	7.403695e-01	3.247765e-02	0.0	7.378779e-01	3.267186e-02	0.0	7.353859e-01	3.286004e-02	0.0	7.328934e-01	3.304304e-02	0.0	7.304007e-01	3.322165e-02	0.0	7.279077e-01	3.339668e-02	0.0	7.254145e-01	3.356925e-02	0.0	7.229212e-01	3.374009e-02	0.0	7.204278e-01	3.390963e-02	0.0	7.179343e-01	3.407814e-02	0.0	7.154408e-01	3.424580e-02	0.0	7.129472e-01	3.441275e-02	0.0	7.104536e-01	3.457908e-02	0.0	7.079600e-01	3.474488e-02	0.0	7.054663e-01	3.491018e-02	0.0	7.029726e-01	3.507505e-02	0.0	7.004789e-01	3.523952e-02	0.0	6.979851e-01	3.540361e-02	0.0	6.954913e-01	3.556734e-02	0.0	6.929975e-01	3.573075e-02	0.0	6.905037e-01	3.589382e-02	0.0	6.880099e-01	3.605658e-02	0.0	6.855160e-01	3.621902e-02	0.0	6.830221e-01	3.638113e-02	0.0	6.805282e-01	3.654289e-02	0.0	6.780343e-01	3.670427e-02	0.0	6.755403e-01	3.686520e-02	0.0	6.730464e-01	3.702597e-02	0.0	6.705524e-01	3.718730e-02	0.0	6.680585e-01	3.734890e-02	0.0	6.655645e-01	3.750979e-02	0.0	6.630704e-01	3.766751e-02	0.0	6.605758e-01	3.781852e-02	0.0	6.580807e-01	3.796176e-02	0.0	6.555854e-01	3.809963e-02	0.0	6.530899e-01	3.823465e-02	0.0	6.505943e-01	3.836829e-02	0.0	6.480987e-01	3.850119e-02	0.0	6.456031e-01	3.863339e-02	0.0	6.431074e-01	3.876490e-02	0.0	6.406117e-01	3.889573e-02	0.0	6.381159e-01	3.902586e-02	0.0	6.356201e-01	3.915530e-02	0.0	6.331243e-01	3.928401e-02	0.0	6.306284e-01	3.941197e-02	0.0	6.281325e-01	3.953916e-02	0.0	6.256365e-01	3.966553e-02	0.0	6.231406e-01	3.979105e-02	0.0	6.206445e-01	3.991565e-02	0.0	6.181484e-01	4.003928e-02	0.0	6.156523e-01	4.016186e-02	0.0	6.131561e-01	4.028332e-02	0.0	6.106598e-01	4.040356e-02	0.0	6.081635e-01	4.052246e-02	0.0	6.056671e-01	4.063988e-02	0.0	6.031707e-01	4.075566e-02	0.0	6.006741e-01	4.086959e-02	0.0	5.981775e-01	4.098194e-02	0.0	5.956808e-01	4.109386e-02	0.0	5.931842e-01	4.120528e-02	0.0	5.906875e-01	4.131604e-02	0.0	5.881908e-01	4.142599e-02	0.0	5.856940e-01	4.153499e-02	0.0	5.831972e-01	4.164289e-02	0.0	5.807003e-01	4.174954e-02	0.0	5.782034e-01	4.185478e-02	0.0	5.757064e-01	4.195847e-02	0.0	5.732093e-01	4.206046e-02	0.0	5.707122e-01	4.216060e-02	0.0	5.682149e-01	4.225874e-02	0.0	5.657176e-01	4.235473e-02	0.0	5.632202e-01	4.244843e-02	0.0	5.607228e-01	4.253967e-02	0.0	5.582252e-01	4.262832e-02	0.0	5.557275e-01	4.271422e-02	0.0	5.532297e-01	4.279722e-02	0.0	5.507319e-01	4.287717e-02	0.0	5.482339e-01	4.295335e-02	0.0	5.457357e-01	4.302426e-02	0.0	5.432375e-01	4.309033e-02	0.0	5.407391e-01	4.315208e-02	0.0	5.382406e-01	4.321004e-02	0.0	5.357421e-01	4.326471e-02	0.0	5.332434e-01	4.331664e-02	0.0	5.307448e-01	4.336634e-02	0.0	5.282461e-01	4.341433e-02	0.0	5.257474e-01	4.346115e-02	0.0	5.232487e-01	4.350731e-02	0.0	5.207499e-01	4.355333e-02	0.0	5.182512e-01	4.359975e-02	0.0	5.157525e-01	4.364709e-02	0.0	5.132539e-01	4.369586e-02	0.0	5.107552e-01	4.374660e-02	0.0	5.082566e-01	4.379982e-02	0.0	5.057581e-01	4.385606e-02	0.0	5.032597e-01	4.391583e-02	0.0	5.007614e-01	4.397966e-02	0.0	4.982631e-01	4.404807e-02	0.0	4.957651e-01	4.412106e-02	0.0	4.932671e-01	4.419809e-02	0.0	4.907692e-01	4.427859e-02	0.0	4.882715e-01	4.436201e-02	0.0	4.857738e-01	4.444779e-02	0.0	4.832762e-01	4.453535e-02	0.0	4.807786e-01	4.462415e-02	0.0	4.782811e-01	4.471362e-02	0.0	4.757835e-01	4.480321e-02	0.0	4.732860e-01	4.489235e-02	0.0	4.707884e-01	4.498048e-02	0.0	4.682907e-01	4.506704e-02	0.0	4.657930e-01	4.515148e-02	0.0	4.632952e-01	4.523322e-02	0.0	4.607973e-01	4.531172e-02	0.0	4.582993e-01	4.538641e-02	0.0	4.558011e-01	4.545672e-02	0.0	4.533028e-01	4.552210e-02	0.0	4.508044e-01	4.558198e-02	0.0	4.483058e-01	4.563631e-02	0.0	4.458072e-01	4.568647e-02	0.0	4.433085e-01	4.573283e-02	0.0	4.408097e-01	4.577564e-02	0.0	4.383108e-01	4.581518e-02	0.0	4.358120e-01	4.585169e-02	0.0	4.333130e-01	4.588545e-02	0.0	4.308141e-01	4.591671e-02	0.0	4.283151e-01	4.594574e-02	0.0	4.258161e-01	4.597280e-02	0.0	4.233171e-01	4.599815e-02	0.0	4.208180e-01	4.602205e-02	0.0	4.183190e-01	4.604476e-02	0.0	4.158199e-01	4.606656e-02	0.0	4.133209e-01	4.608769e-02	0.0	4.108218e-01	4.610842e-02	0.0	4.083228e-01	4.612902e-02	0.0	4.058237e-01	4.614975e-02	0.0	4.033246e-01	4.617086e-02	0.0	4.008256e-01	4.619262e-02	0.0	3.983265e-01	4.621500e-02	0.0	3.958275e-01	4.623715e-02	0.0	3.933284e-01	4.625892e-02	0.0	3.908294e-01	4.628024e-02	0.0	3.883303e-01	4.630103e-02	0.0	3.858312e-01	4.632123e-02	0.0	3.833322e-01	4.634075e-02	0.0	3.808331e-01	4.635952e-02	0.0	3.783340e-01	4.637747e-02	0.0	3.758349e-01	4.639452e-02	0.0	3.733358e-01	4.641059e-02	0.0	3.708367e-01	4.642562e-02	0.0	3.683376e-01	4.643952e-02	0.0	3.658385e-01	4.645222e-02	0.0	3.633394e-01	4.646365e-02	0.0	3.608402e-01	4.647373e-02	0.0	3.583411e-01	4.648238e-02	0.0	3.558420e-01	4.648954e-02	0.0	3.533428e-01	4.649512e-02	0.0	3.508437e-01	4.649906e-02	0.0	3.483445e-01	4.650138e-02	0.0	3.458454e-01	4.650243e-02	0.0	3.433462e-01	4.650223e-02	0.0	3.408471e-01	4.650078e-02	0.0	3.383479e-01	4.649807e-02	0.0	3.358488e-01	4.649413e-02	0.0	3.333496e-01	4.648893e-02	0.0	3.308505e-01	4.648248e-02	0.0	3.283514e-01	4.647478e-02	0.0	3.258522e-01	4.646584e-02	0.0	3.233531e-01	4.645564e-02	0.0	3.208540e-01	4.644420e-02	0.0	3.183549e-01	4.643150e-02	0.0	3.158558e-01	4.641756e-02	0.0	3.133567e-01	4.640237e-02	0.0	3.108576e-01	4.638593e-02	0.0	3.083585e-01	4.636824e-02	0.0	3.058594e-01	4.634930e-02	0.0	3.033603e-01	4.632911e-02	0.0	3.008613e-01	4.630768e-02	0.0	2.983622e-01	4.628515e-02	0.0	2.958632e-01	4.626200e-02	0.0	2.933641e-01	4.623817e-02	0.0	2.908651e-01	4.621353e-02	0.0	2.883661e-01	4.618799e-02	0.0	2.858671e-01	4.616143e-02	0.0	2.833681e-01	4.613373e-02	0.0	2.808691e-01	4.610478e-02	0.0	2.783702e-01	4.607447e-02	0.0	2.758712e-01	4.604270e-02	0.0	2.733723e-01	4.600933e-02	0.0	2.708734e-01	4.597427e-02	0.0	2.683745e-01	4.593741e-02	0.0	2.658757e-01	4.589862e-02	0.0	2.633768e-01	4.585780e-02	0.0	2.608781e-01	4.581483e-02	0.0	2.583793e-01	4.576960e-02	0.0	2.558806e-01	4.572201e-02	0.0	2.533820e-01	4.567193e-02	0.0	2.508834e-01	4.561926e-02	0.0	2.483848e-01	4.556415e-02	0.0	2.458863e-01	4.550741e-02	0.0	2.433879e-01	4.544906e-02	0.0	2.408894e-01	4.538900e-02	0.0	2.383911e-01	4.532718e-02	0.0	2.358927e-01	4.526351e-02	0.0	2.333944e-01	4.519792e-02	0.0	2.308962e-01	4.513034e-02	0.0	2.283980e-01	4.506069e-02	0.0	2.258999e-01	4.498890e-02	0.0	2.234018e-01	4.491489e-02	0.0	2.209039e-01	4.483859e-02	0.0	2.184060e-01	4.475992e-02	0.0	2.159081e-01	4.467881e-02	0.0	2.134104e-01	4.459518e-02	0.0	2.109127e-01	4.450897e-02	0.0	2.084151e-01	4.442009e-02	0.0	2.059177e-01	4.432847e-02	0.0	2.034203e-01	4.423404e-02	0.0	2.009231e-01	4.413672e-02	0.0	1.984259e-01	4.403650e-02	0.0	1.959289e-01	4.393359e-02	0.0	1.934320e-01	4.382811e-02	0.0	1.909352e-01	4.372013e-02	0.0	1.884384e-01	4.360972e-02	0.0	1.859418e-01	4.349693e-02	0.0	1.834453e-01	4.338178e-02	0.0	1.809490e-01	4.326430e-02	0.0	1.784527e-01	4.314449e-02	0.0	1.759565e-01	4.302235e-02	0.0	1.734605e-01	4.289786e-02	0.0	1.709646e-01	4.277100e-02	0.0	1.684687e-01	4.264170e-02	0.0	1.659731e-01	4.250992e-02	0.0	1.634775e-01	4.237557e-02	0.0	1.609822e-01	4.223856e-02	0.0	1.584869e-01	4.209876e-02	0.0	1.559918e-01	4.195602e-02	0.0	1.534970e-01	4.181016e-02	0.0	1.510023e-01	4.166095e-02	0.0	1.485078e-01	4.150830e-02	0.0	1.460135e-01	4.135261e-02	0.0	1.435194e-01	4.119369e-02	0.0	1.410255e-01	4.103126e-02	0.0	1.385319e-01	4.086503e-02	0.0	1.360386e-01	4.069471e-02	0.0	1.335456e-01	4.052000e-02	0.0	1.310529e-01	4.034059e-02	0.0	1.285605e-01	4.015619e-02	0.0	1.260686e-01	3.996653e-02	0.0	1.235771e-01	3.977132e-02	0.0	1.210860e-01	3.957032e-02	0.0	1.185954e-01	3.936331e-02	0.0	1.161054e-01	3.915010e-02	0.0	1.136159e-01	3.893054e-02	0.0	1.111270e-01	3.870451e-02	0.0	1.086387e-01	3.847177e-02	0.0	1.061512e-01	3.823146e-02	0.0	1.036643e-01	3.798369e-02	0.0	1.011782e-01	3.772865e-02	0.0	9.869287e-02	3.746648e-02	0.0	9.620826e-02	3.719729e-02	0.0	9.372442e-02	3.692112e-02	0.0	9.124136e-02	3.663798e-02	0.0	8.875912e-02	3.634781e-02	0.0	8.627772e-02	3.605050e-02	0.0	8.379721e-02	3.574585e-02	0.0	8.131764e-02	3.543360e-02	0.0	7.883910e-02	3.511337e-02	0.0	7.636167e-02	3.478463e-02	0.0	7.388555e-02	3.444616e-02	0.0	7.141140e-02	3.409353e-02	0.0	6.893949e-02	3.372563e-02	0.0	6.646993e-02	3.334223e-02	0.0	6.400283e-02	3.294327e-02	0.0	6.153828e-02	3.252889e-02	0.0	5.907630e-02	3.209950e-02	0.0	5.661685e-02	3.165585e-02	0.0	5.415979e-02	3.119911e-02	0.0	5.170489e-02	3.073094e-02	0.0	4.925167e-02	3.025400e-02	0.0	4.679885e-02	2.977507e-02	0.0	4.434779e-02	2.928717e-02	0.0	4.190165e-02	2.877527e-02	0.0	3.946460e-02	2.822178e-02	0.0	3.704086e-02	2.761278e-02	0.0	3.463302e-02	2.694363e-02	0.0	3.224133e-02	2.621885e-02	0.0	2.986710e-02	2.543878e-02	0.0	2.750733e-02	2.461591e-02	0.0	2.515848e-02	2.376234e-02	0.0	2.281
[...]
POINT_DATA 13100

SCALARS Density double 1
LOOKUP_TABLE default
1.135610e+00	1.219279e+00	1.145443e+00	1.184967e+00	1.184577e+00	1.224232e+00	1.224565e+00	1.225041e+00	1.225407e+00	1.185035e+00	1.183930e+00	1.184379e+00	1.185022e+00	1.185340e+00	1.185458e+00	1.185721e+00	1.186194e+00	1.186837e+00	1.187784e+00	1.188562e+00	1.189051e+00	1.189400e+00	1.189313e+00	1.188933e+00	1.188478e+00	1.188244e+00	1.188252e+00	1.188520e+00	1.188944e+00	1.189421e+00	1.189788e+00	1.190172e+00	1.190470e+00	1.190694e+00	1.190975e+00	1.191177e+00	1.191334e+00	1.191238e+00	1.190995e+00	1.190827e+00	1.190836e+00	1.190984e+00	1.191151e+00	1.191361e+00	1.191527e+00	1.191755e+00	1.191981e+00	1.192163e+00	1.192324e+00	1.192494e+00	1.192649e+00	1.192795e+00	1.192914e+00	1.193009e+00	1.193071e+00	1.193178e+00	1.193237e+00	1.193305e+00	1.193381e+00	1.193503e+00	1.193542e+00	1.193589e+00	1.193663e+00	1.193684e+00	1.193726e+00	1.193741e+00	1.193765e+00	1.193821e+00	1.193837e+00	1.193783e+00	1.193719e+00	1.193586e+00	1.193442e+00	1.193417e+00	1.193706e+00	1.193899e+00	1.194031e+00	1.194163e+00	1.194236e+00	1.194294e+00	1.194310e+00	1.194357e+00	1.194387e+00	1.194432e+00	1.194444e+00	1.194483e+00	1.194496e+00	1.194508e+00	1.194540e+00	1.194563e+00	1.194571e+00	1.194589e+00	1.194597e+00	1.194610e+00	1.194648e+00	1.194664e+00	1.194698e+00	1.194741e+00	1.194815e+00	1.194852e+00	1.194831e+00	1.194827e+00	1.194841e+00	1.194815e+00	1.194804e+00	1.194775e+00	1.194756e+00	1.194769e+00	1.194770e+00	1.194739e+00	1.194760e+00	1.194765e+00	1.194737e+00	1.194723e+00	1.194780e+00	1.194750e+00	1.194750e+00	1.194722e+00	1.194745e+00	1.194791e+00	1.194893e+00	1.195037e+00	1.195138e+00	1.195259e+00	1.195370e+00	1.195462e+00	1.195575e+00	1.195693e+00	1.195786e+00	1.195883e+00	1.195992e+00	1.196084e+00	1.196184e+00	1.196254e+00	1.196296e+00	1.196337e+00	1.196354e+00	1.196324e+00	1.196282e+00	1.196199e+00	1.196085e+00	1.195980e+00	1.195885e+00	1.195691e+00	1.195554e+00	1.195447e+00	1.195277e+00	1.195165e+00	1.195027e+00	1.194862e+00	1.194731e+00	1.194615e+00	1.194495e+00	1.194412e+00	1.194355e+00	1.194298e+00	1.194273e+00	1.194279e+00	1.194331e+00	1.194342e+00	1.194358e+00	1.194364e+00	1.194394e+00	1.194433e+00	1.194468e+00	1.194499e+00	1.194545e+00	1.194572e+00	1.194610e+00	1.194639e+00	1.194655e+00	1.194689e+00	1.194722e+00	1.194722e+00	1.194728e+00	1.194748e+00	1.194716e+00	1.194692e+00	1.194602e+00	1.194534e+00	1.194487e+00	1.194430e+00	1.194405e+00	1.194356e+00	1.194330e+00	1.194287e+00	1.194227e+00	1.194177e+00	1.194166e+00	1.194124e+00	1.194044e+00	1.193999e+00	1.193947e+00	1.193878e+00	1.193823e+00	1.193749e+00	1.193727e+00	1.193717e+00	1.193645e+00	1.193604e+00	1.193575e+00	1.193486e+00	1.193441e+00	1.193360e+00	1.193338e+00	1.193267e+00	1.193232e+00	1.193182e+00	1.193125e+00	1.193046e+00	1.192997e+00	1.192916e+00	1.192890e+00	1.192817e+00	1.192767e+00	1.192666e+00	1.192623e+00	1.192546e+00	1.192494e+00	1.192449e+00	1.192374e+00	1.192329e+00	1.192237e+00	1.192172e+00	1.192063e+00	1.191982e+00	1.191819e+00	1.191722e+00	1.191653e+00	1.191566e+00	1.191509e+00	1.191411e+00	1.191335e+00	1.191229e+00	1.191148e+00	1.191009e+00	1.190927e+00	1.190880e+00	1.190814e+00	1.190772e+00	1.190652e+00	1.190571e+00	1.190446e+00	1.190390e+00	1.190299e+00	1.190211e+00	1.190062e+00	1.189978e+00	1.189850e+00	1.189682e+00	1.189542e+00	1.189448e+00	1.189289e+00	1.189195e+00	1.189037e+00	1.188947e+00	1.188856e+00	1.188714e+00	1.188611e+00	1.188556e+00	1.188425e+00	1.188348e+00	1.188232e+00	1.188028e+00	1.187932e+00	1.187785e+00	1.187575e+00	1.187385e+00	1.187251e+00	1.187061e+00	1.186944e+00	1.186739e+00	1.186494e+00	1.186357e+00	1.186160e+00	1.185842e+00	1.185679e+00	1.185425e+00	1.185279e+00	1.185038e+00	1.184833e+00	1.184549e+00	1.184319e+00	1.183988e+00	1.183781e+00	1.183513e+00	1.183336e+00	1.183053e+00	1.182844e+00	1.182559e+00	1.182358e+00	1.181966e+00	1.181738e+00	1.181331e+00	1.181036e+00	1.180675e+00	1.180378e+00	1.180055e+00	1.179817e+00	1.179509e+00	1.179026e+00	1.178808e+00	1.178388e+00	1.178095e+00	1.177536e+00	1.177112e+00	1.176584e+00	1.176125e+00	1.175434e+00	1.174701e+00	1.174222e+00	1.173916e+00	1.173349e+00	1.172917e+00	1.172299e+00	1.171863e+00	1.171225e+00	1.170408e+00	1.169714e+00	1.168283e+00	1.166478e+00	1.164483e+00	1.162831e+00	1.161671e+00	1.161500e+00	1.161392e+00	1.161786e+00	1.162029e+00	1.162392e+00	1.162135e+00	1.160605e+00	1.158074e+00	1.154532e+00	1.148473e+00	1.139389e+00	1.134830e+00	1.148925e+00	1.157067e+00	1.159997e+00	1.175211e+00	1.185815e+00	1.199118e+00	1.212451e+00	1.222805e+00	1.236499e+00	1.244829e+00	1.249431e+00	1.252395e+00	1.254659e+00	1.254268e+00	1.253762e+00	1.254391e+00	1.251626e+00	1.249795e+00	1.248825e+00	1.247334e+00	1.245167e+00	1.244278e+00	1.243554e+00	1.243118e+00	1.242414e+00	1.241557e+00	1.241156e+00	1.240584e+00	1.240333e+00	1.239827e+00	1.239150e+00	1.238914e+00	1.238527e+00	1.238166e+00	1.238226e+00	1.238091e+00	1.237838e+00	1.237532e+00	1.237433e+00	1.237128e+00	1.236696e+00	1.236552e+00	1.236371e+00	1.236106e+00	1.235960e+00	1.235798e+00	1.235728e+00	1.235651e+00	1.235456e+00	1.235305e+00	1.235162e+00	1.235059e+00	1.234944e+00	1.234882e+00	1.234775e+00	1.234723e+00	1.234653e+00	1.234505e+00	1.234399e+00	1.234321e+00	1.234246e+00	1.234210e+00	1.234138e+00	1.234043e+00	1.234000e+00	1.233975e+00	1.233936e+00	1.233944e+00	1.233906e+00	1.233859e+00	1.233825e+00	1.233827e+00	1.233783e+00	1.233763e+00	1.233748e+00	1.233697e+00	1.233660e+00	1.233630e+00	1.233631e+00	1.233588e+00	1.233548e+00	1.233526e+00	1.233499e+00	1.233481e+00	1.233459e+00	1.233455e+00	1.233421e+00	1.233394e+00	1.233365e+00	1.233343e+00	1.233317e+00	1.233313e+00	1.233292e+00	1.233270e+00	1.233239e+00	1.233192e+00	1.233180e+00	1.233168e+00	1.233150e+00	1.233137e+00	1.233133e+00	1.233149e+00	1.233125e+00	1.233116e+00	1.233129e+00	1.233121e+00	1.233110e+00	1.233117e+00	1.233121e+00	1.233116e+00	1.233115e+00	1.233112e+00	1.233112e+00	1.233118e+00	1.233098e+00	1.233084e+00	1.233079e+00	1.233067e+00	1.233066e+00	1.233074e+00	1.233083e+00	1.233095e+00	1.233104e+00	1.233118e+00	1.233133e+00	1.233150e+00	1.233164e+00	1.233188e+00	1.233203e+00	1.233222e+00	1.233238e+00	1.233259e+00	1.233274e+00	1.233295e+00	1.233305e+00	1.233299e+00	1.233297e+00	1.233301e+00	1.233315e+00	1.233328e+00	1.233333e+00	1.233338e+00	1.233340e+00	1.233344e+00	1.233356e+00	1.233368e+00	1.233384e+00	1.233394e+00	1.233399e+00	1.233402e+00	1.233410e+00	1.233426e+00	1.233434e+00	1.233444e+00	1.233450e+00	1.233456e+00	1.233465e+00	1.233478e+00	1.233498e+00	1.233517e+00	1.233535e+00	1.233547e+00	1.233562e+00	1.233576e+00	1.233602e+00	1.233621e+00	1.233642e+00	1.233664e+00	1.233683e+00	1.233703e+00	1.233728e+00	1.233751e+00	1.233771e+00	1.233792e+00	1.233819e+00	1.233835e+00	1.233855e+00	1.233872e+00	1.233892e+00	1.233918e+00	1.233933e+00	1.233947e+00	1.233965e+00	1.233977e+00	1.233988e+00	1.234006e+00	1.234033e+00	1.234053e+00	1.234076e+00	1.234094e+00	1.234115e+00	1.234122e+00	1.234132e+00	1.234152e+00	1.234199e+00	1.234224e+00	1.234266e+00	1.234289e+00	1.234310e+00	1.234331e+00	1.234351e+00	1.234366e+00	1.234380e+00	1.234399e+00	1.234420e+00	1.234447e+00	1.234474e+00	1.234482e+00	1.234503e+00	1.234527e+00	1.234554e+00	1.234561e+00	1.234582e+00	1.234612e+00	1.234667e+00	1.234724e+00	1.234767e+00	1.234804e+00	1.234835e+00	1.234863e+00	1.234878e+00	1.234897e+00	1.234907e+00	1.234926e+00	1.234948e+00	1.234969e+00	1.234994e+00	1.235032e+00	1.235066e+00	1.235077e+00	1.235099e+00	1.235120e+00	1.235150e+00	1.235160e+00	1.235227e+00	1.235321e+00	1.235396e+00	1.235440e+00	1.235493e+00	1.235528e+00	1.235572e+00	1.235598e+00	1.235621e+00	1.235674e+00	1.235693e+00	1.235721e+00	1.235763e+00	1.235800e+00	1.235819e+00	1.235861e+00	1.235901e+00	1.235957e+00	1.236025e+00	1.236050e+00	1.236081e+00	1.236157e+00	1.236218e+00	1.236362e+00	1.236449e+00	1.236538e+00	1.236720e+00	1.236883e+00	1.237020e+00	1.237030e+00	1.237172e+00	1.237306e+00	1.237450e+00	1.237622e+00	1.237728e+00	1.237817e+00	1.237925e+00	1.238087e+00	1.238199e+00	1.238332e+00	1.238432e+00	1.238376e+00	1.238439e+00	1.238364e+00	1.238395e+00	1.238472e+00	1.238749e+00	1.239022e+00	1.240034e+00	1.242305e+00	1.208224e+00	1.216426e+00	1.219334e+00	1.221006e+00	1.221958e+00	1.222360e+00	1.222543e+00	1.222817e+00	1.223042e+00	1.223538e+00	1.223766e+00	1.224116e+00	1.224509e+00	1.224611e+00	1.224972e+00	1.225126e+00	1.225174e+00	1.225458e+00	1.225750e+00	1.225941e+00	1.226070e+00	1.226178e+00	1.226519e+00	1.226925e+00	1.227087e+00	1.227401e+00	1.227739e+00	1.227968e+00	1.228084e+00	1.228421e+00	1.228707e+00	1.228884e+00	1.229015e+00	1.229152e+00	1.229267e+00	1.229398e+00	1.229489e+00	1.229618e+00	1.229801e+00	1.229920e+00	1.230078e+00	1.230310e+00	1.230405e+00	1.230647e+00	1.230706e+00	1.230874e+00	1.231121e+00	1.231262e+00	1.231536e+00	1.231617e+00	1.232090e+00	1.232425e+00	1.232316e+00	1.232402e+00	1.232885e+00	1.233234e+00	1.233543e+00	1.233743e+00	1.233804e+00	1.232471e+00	1.232328e+00	1.231145e+00	1.229781e+00	1.228126e+00	1.225240e+00	1.220874e+00	1.216016e+00	1.209522e+00	1.201270e+00	1.194965e+00	1.224270e+00	1.224379e+00	1.224506e+00	1.224553e+00	1.224585e+00	1.224603e+00	1.224598e+00	1.224595e+00	1.224596e+00	1.224589e+00	1.224584e+00	1.224578e+00	1.224570e+00	1.224569e+00	1.224571e+00	1.224573e+00	1.224577e+00	1.224594e+00	1.224623e+00	1.224653e+00	1.224688e+00	1.224719e+00	1.224749e+00	1.224784e+00	1.224821e+00	1.224859e+00	1.224897e+00	1.224935e+00	1.224973e+00	1.225007e+00	1.225080e+00	1.225115e+00	1.225152e+00	1.225183e+00	1.225216e+00	1.225250e+00	1.225280e+00	1.225304e+00	1.225326e+00	1.225350e+00	1.225371e+00	1.225384e+00	1.225399e+00	1.225406e+00	1.225412e+00	1.225393e+00	1.225381e+00	1.225372e+00	1.225356e+00	1.225341e+00	1.225319e+00	1.225298e+00	1.225273e+00	1.225248e+00	1.225213e+00	1.225160e+00	1.225073e+00	1.224932e+00	1.224651e+00	1.224354e+00	1.205718e+00	1.204706e+00	1.203051e+00	1.200398e+00	1.200798e+00	1.202641e+00	1.202920e+00	1.202957e+00	1.202645e+00	1.202045e+00	1.201424e+00	1.200872e+00	1.200125e+00	1.199574e+00	1.199190e+00	1.198745e+00	1.198122e+00	1.197586e+00	1.196927e+00	1.196191e+00	1.195278e+00	1.194687e+00	1.194100e+00	1.193349e+00	1.192471e+00	1.191682e+00	1.190807e+00	1.189917e+00	1.188991e+00	1.187891e+00	1.186324e+00	1.184453e+00	1.183160e+00	1.182528e+00	1.181396e+00	1.179690e+00	1.178074e+00	1.176883e+00	1.176116e+00	1.175887e+00	1.175298e+00	1.174541e+00	1.173571e+00	1.172381e+00	1.171582e+00	1.170634e+00	1.169302e+00	1.168195e+00	1.166952e+00	1.164926e+00	1.163062e+00	1.161693e+00	1.160863e+00	1.160332e+00	1.159354e+00	1.156820e+00	1.155397e+00	1.153960e+00	1.153112e+00	1.153314e+00	1.153906e+00	1.153413e+00	1.153635e+00	1.156401e+00	1.155096e+00	1.155280e+00	1.166375e+00	1.177484e+00	1.192285e+00	1.214318e+00	1.231437e+00	1.243113e+00	1.243917e+00	1.242249e+00	1.241997e+00	1.241964e+00	1.241679e+00	1.241804e+00	1.241994e+00	1.241990e+00	1.242280e+00	1.242205e+00	1.242306e+00	1.242656e+00	1.242659e+00	1.242441e+00	1.242753e+00	1.242662e+00	1.242755e+00	1.242852e+00	1.242733e+00	1.242764e+00	1.242849e+00	1.242781e+00	1.242985e+00	1.242875e+00	1.242880e+00	1.242836e+00	1.242790e+00	1.242804e+00	1.242730e+00	1.242774e+00	1.242657e+00	1.242687e+00	1.242662e+00	1.242588e+00	1.242668e+00	1.242516e+00	1.242392e+00	1.242362e+00	1.242352e+00	1.242361e+00	1.242316e+00	1.242312e+00	1.242147e+00	1.242114e+00	1.242011e+00	1.241947e+00	1.241893e+00	1.241826e+00	1.241821e+00	1.241720e+00	1.241640e+00	1.241525e+00	1.241579e+00	1.241581e+00	1.241488e+00	1.241522e+00	1.241440e+00	1.241342e+00	1.241241e+00	1.241183e+00	1.241052e+00	1.241031e+00	1.240862e+00	1.240794e+00	1.240721e+00	1.240560e+00	1.240537e+00	1.240421e+00	1.240333e+00	1.240298e+00	1.240217e+00	1.240285e+00	1.240207e+00	1.240089e+00	1.239924e+00	1.239861e+00	1.239713e+00	1.239559e+00	1.239471e+00	1.239205e+00	1.239164e+00	1.239055e+00	1.239087e+00	1.239078e+00	1.238912e+00	1.238826e+00	1.238480e+00	1.237988e+00	1.237608e+00	1.237698e+00	1.237559e+00	1.237206e+00	1.236845e+00	1.236596e+00	1.236556e+00	1.236295e+00	1.235766e+00	1.235668e+00	1.238737e+00	1.145592e+00	1.166414e+00	1.225567e+00	1.224342e+00	1.226086e+00	1.223828e+00	1.227115e+00	1.222697e+00	1.228971e+00	1.220148e+00	1.222358e+00	1.231768e+00	1.215036e+00	1.235281e+00	1.220522e+00	1.220125e+00	1.227266e+00	1.237900e+00	1.226141e+00	1.207613e+00	1.242066e+00	1.215875e+00	1.226594e+00	1.237801e+00	1.233305e+00	1.242484e+00	1.214185e+00	1.235832e+00	1.228209e+00	1.209700e+00	1.192952e+00	1.204672e+00	1.224752e+00	1.239666e+00	1.208178e+00	1.224386e+00	1.241280e+00	1.237745e+00	1.236669e+00	1.234646e+00	1.241046e+00	1.239190e+00	1.244099e+00	1.236929e+00	1.224383e+00	1.211784e+00	1.198860e+00	1.204860e+00	1.206330e+00	1.240682e+00	1.237679e+00	1.231640e+00	1.237118e+00	1.236762e+00	1.225313e+00	1.200963e+00	1.208873e+00	1.243385e+00	1.239209e+00	1.237771e+00	1.236824e+00	1.236323e+00	1.236572e+00	1.201416e+00	1.202181e+00	1.202277e+00	1.202940e+00	1.208853e+00	1.219928e+00	1.241446e+00	1.222214e+00	1.207551e+00	1.237316e+00	1.238926e+00	1.243942e+00	1.198483e+00	1.224005e+00	1.225816e+00	1.240475e+00	1.234058e+00	1.200631e+00	1.202411e+00	1.215753e+00	1.238426e+00	1.235993e+00	1.235779e+00	1.199813e+00	1.198234e+00	1.244218e+00	1.243808e+00	1.235608e+00	1.199972e+00	1.199083e+00	1.199913e+00	1.198805e+00	1.239746e+00	1.223627e+00	1.225354e+00	1.237665e+00	1.199012e+00	1.197463e+00	1.196521e+00	1.193645e+00	1.231410e+00	1.240611e+00	1.198531e+00	1.235356e+00	1.235626e+00	1.235608e+00	1.236322e+00	1.190077e+00	1.194756e+00	1.193619e+00	1.181582e+00	1.236673e+00	1.236241e+00	1.238921e+00	1.238114e+00	1.225412e+00	1.196989e+00	1.196192e+00	1.242532e+00	1.234353e+00	1.235696e+00	1.185577e+00	1.238668e+00	1.236494e+00	1.237762e+00	1.190913e+00	1.200234e+00	1.198023e+00	1.227083e+00	1.235862e+00	1.197521e+00	1.239191e+00	1.241919e+00	1.225937e+00	1.194404e+00	1.193115e+00	1.197728e+00	1.196894e+00	1.196754e+00	1.240182e+00	1.197289e+00	1.242923e+00	1.240731e+00	1.224350e+00	1.242761e+00	1.197159e+00	1.196492e+00	1.235218e+00	1.205309e+00	1.221613e+00	1.199062e+00	1.235147e+00	1.224555e+00	1.228535e+00	1.195695e+00	1.241253e+00	1.188907e+00	1.195825e+00	1.218413e+00	1.195906e+00	1.235170e+00	1.194176e+00	1.193010e+00	1.243699e+00	1.230174e+00	1.240221e+00	1.196643e+00	1.234757e+00	1.243922e+00	1.235191e+00	1.224429e+00	1.235096e+00	1.224562e+00	1.238491e+00	1.225515e+00	1.228501e+00	1.191099e+00	1.188580e+00	1.242816e+00	1.224398e+00	1.222339e+00	1.237238e+00	1.234684e+00	1.234512e+00	1.190354e+00	1.190389e+00	1.243648e+00	1.224771e+00	1.232362e+00	1.196726e+00	1.196179e+00	1.217415e+00	1.219944e+00	1.234437e+00	1.234537e+00	1.200823e+00	1.187230e+00	1.231424e+00	1.228879e+00	1.184634e+00	1.237049e+00	1.236535e+00	1.227343e+00	1.236305e+00	1.235847e+00	1.211069e+00	1.234872e+00	1.243499e+00	1.194675e+00	1.194323e+00	1.193446e+00	1.192994e+00	1.187179e+00	1.205715e+00	1.236715e+00	1.238899e+00	1.231944e+00	1.223753e+00	1.230126e+00	1.234386e+00	1.240841e+00	1.237116e+00	1.240381e+00	1.239216e+00	1.240292e+00	1.236063e+00	1.234331e+00	1.236967e+00	1.218205e+00	1.194969e+00	1.188291e+00	1.241010e+00	1.235077e+00	1.242229e+00	1.223630e+00	1.235356e+00	1.224217e+00	1.223628e+00	1.237151e+00	1.186473e+00	1.243188e+00	1.225657e+00	1.224672e+00	1.225641e+00	1.243827e+00	1.242180e+00	1.243080e+00	1.243270e+00	1.196878e+00	1.220892e+00	1.225021e+00	1.189966e+00	1.194844e+00	1.241347e+00	1.238576e+00	1.196045e+00	1.196241e+00	1.241765e+00	1.241850e+00	1.191486e+00	1.195890e+00	1.237617e+00	1.235022e+00	1.235501e+00	1.218934e+00	1.195719e+00	1.182224e+00	1.230787e+00	1.221625e+00	1.213162e+00	1.191733e+00	1.227393e+00	1.239901e+00	1.189660e+00	1.226245e+00	1.225259e+00	1.235382e+00	1.195438e+00	1.233777e+00	1.229351e+00	1.214905e+00	1.232731e+00	1.235446e+00	1.237764e+00	1.222116e+00	1.196396e+00	1.235004e+00	1.205159e+00	1.206617e+00	1.244612e+00	1.247197e+00	1.234509e+00	1.234375e+00	1.240612e+00	1.243941e+00	1.243268e+00	1.195150e+00	1.238633e+00	1.225381e+00	1.192489e+00	1.239717e+00	1.238840e+00	1.193798e+00	1.224432e+00	1.194898e+00	1.243172e+00	1.234007e+00	1.195513e+00	1.224973e+00	1.234033e+00	1.234041e+00	1.187599e+00	1.196441e+00	1.225381e+00	1.234884e+00	1.195166e+00	1.208409e+00	1.222310e+00	1.195287e+00	1.194167e+00	1.225472e+00	1.194930e+00	1.185594e+00	1.178569e+00	1.205045e+00	1.189850e+00	1.224990e+00	1.242432e+00	1.240533e+00	1.201151e+00	1.227439e+00	1.234979e+00	1.223345e+00	1.240440e+00	1.244422e+00	1.195807e+00	1.233606e+00	1.239429e+00	1.203264e+00	1.203406e+00	1.236994e+00	1.235660e+00	1.221048e+00	1.246698e+00	1.217120e+00	1.190816e+00	1.206787e+00	1.214586e+00	1.225455e+00	1.240145e+00	1.203772e+00	1.235894e+00	1.239328e+00	1.237274e+00	1.233965e+00	1.231217e+00	1.233850e+00	1.225343e+00	1.224504e+00	1.236810e+00	1.232845e+00	1.203818e+00	1.195651e+00	1.216367e+00	1.240512e+00	1.238733e+00	1.223577e+00	1.179716e+00	1.202533e+00	1.236778e+00	1.197700e+00	1.238008e+00	1.223382e+00	1.242675e+00	1.188887e+00	1.194018e+00	1.228475e+00	1.224830e+00	1.233724e+00	1.240561e+00	1.239855e+00	1.194497e+00	1.237156e+00	1.226165e+00	1.234607e+00	1.242334e+00	1.237595e+00	1.235579e+00	1.222516e+00	1.234151e+00	1.212492e+00	1.215980e+00	1.236417e+00	1.174719e+00	1.195366e+00	1.175768e+00	1.236631e+00	1.238241e+00	1.182647e+00	1.242915e+00	1.195665e+00	1.229533e+00	1.195532e+00	1.241341e+00	1.235039e+00	1.242042e+00	1.235318e+00	1.214602e+00	1.192765e+00	1.191586e+00	1.207597e+00	1.233824e+00	1.234009e+00	1.190539e+00	1.236155e+00	1.233502e+00	1.234736e+00	1.218787e+00	1.194065e+00	1.244174e+00	1.243031e+00	1.240595e+00	1.239127e+00	1.180366e+00	1.224482e+00	1.224502e+00	1.243224e+00	1.225157e+00	1.237787e+00	1.223537e+00	1.240951e+00	1.226346e+00	1.202839e+00	1.242472e+00	1.219465e+00	1.202747e+00	1.200480e+00	1.239289e+00	1.246175e+00	1.189553e+00	1.236440e+00	1.238444e+00	1.240891e+00	1.195780e+00	1.224641e+00	1.233331e+00	1.210432e+00	1.228544e+00	1.237938e+00	1.238604e+00	1.234912e+00	1.193294e+00	1.226398e+00	1.225192e+00	1.224333e+00	1.237030e+00	1.233849e+00	1.213584e+00	1.192695e+00	1.191975e+00	1.237849e+00	1.234012e+00	1.210836e+00	1.223147e+00	1.225075e+00	1.235108e+00	1.234626e+00	1.200360e+00	1.221265e+00	1.212310e+00	1.235983e+00	1.234979e+00	1.236536e+00	1.235349e+00	1.225433e+00	1.195321e+00	1.236101e+00	1.242177e+00	1.172847e+00	1.238072e+00	1.234759e+00	1.196067e+00	1.236450e+00	1.184085e+00	1.236447e+00	1.243218e+00	1.224223e+00	1.170668e+00	1.185810e+00	1.240198e+00	1.239831e+00	1.224101e+00	1.225532e+00	1.237896e+00	1.241757e+00	1.201639e+00	1.239018e+00	1.187790e+00	1.236308e+00	1.241671e+00	1.236618e+00	1.236629e+00	1.241338e+00	1.211125e+00	1.194527e+00	1.235741e+00	1.225439e+00	1.239346e+00	1.200220e+00	1.236252e+00	1.234099e+00	1.235563e+00	1.191158e+00	1.243486e+00	1.236358e+00	1.221722e+00	1.234173e+00	1.207395e+00	1.195249e+00	1.195114e+00	1.200374e+00	1.241352e+00	1.227762e+00	1.197934e+00	1.224542e+00	1.242339e+00	1.225109e+00	1.241562e+00	1.196241e+00	1.233955e+00	1.233717e+00	1.233690e+00	1.243476e+00	1.243076e+00	1.231521e+00	1.236885e+00	1.243053e+00	1.199956e+00	1.194686e+00	1.195042e+00	1.194089e+00	1.244269e+00	1.236775e+00	1.238730e+00	1.217928e+00	1.235060e+00	1.173053e+00	1.224606e+00	1.224175e+00	1.197530e+00	1.226381e+00	1.243393e+00	1.193335e+00	1.233648e+00	1.178994e+00	1.234361e+00	1.238941e+00	1.195147e+00	1.189437e+00	1.206864e+00	1.243715e+00	1.241617e+00	1.183085e+00	1.204974e+00	1.195003e+00	1.238358e+00	1.241812e+00	1.241295e+00	1.195673e+00	1.233923e+00	1.233298e+00	1.221785e+00	1.192970e+00	1.192735e+00	1.194576e+00	1.191987e+00	1.240954e+00	1.240784e+00	1.234999e+00	1.220521e+00	1.186041e+00	1.191310e+00	1.199150e+00	1.230993e+00	1.227202e+00	1.231617e+00	1.187572e+00	1.196042e+00	1.237524e+00	1.223057e+00	1.223998e+00	1.236852e+00	1.187382e+00	1.222778e+00	1.197421e+00	1.234488e+00	1.230143e+00	1.225857e+00	1.225736e+00	1.183006e+00	1.244009e+00	1.224545e+00	1.204124e+00	1.183613e+00	1.237447e+00	1.233776e+00	1.236198e+00	1.239756e+00	1.227961e+00	1.22441