# vtk DataFile Version 3.0
vtk output
ASCII
DATASET UNSTRUCTURED_GRID
POINTS 15671 double
8.250000e-01	2.490000e-02	0.0	6.750000e-01	-2.870000e-02	0.0	8.250000e-01	2.410000e-02	0.0	1.078890e+00	-1.341520e-01	0.0	1.073600e+00	-1.423860e-01	0.0	3.000000e+01	0.000000e+00	0.0	0.000000e+00	3.000000e+01	0.0	-3.000000e+01	0.000000e+00	0.0	0.000000e+00	-3.000000e+01	0.0	8.225136e-01	2.515232e-02	0.0	8.200260e-01	2.539252e-02	0.0	8.175378e-01	2.562525e-02	0.0	8.150494e-01	2.585730e-02	0.0	8.125613e-01	2.609165e-02	0.0	8.100736e-01	2.633135e-02	0.0	8.075861e-01	2.657236e-02	0.0	8.050983e-01	2.680983e-02	0.0	8.026098e-01	2.704006e-02	0.0	8.001202e-01	2.725873e-02	0.0	7.976299e-01	2.746874e-02	0.0	7.951395e-01	2.767761e-02	0.0	7.926495e-01	2.789148e-02	0.0	7.901604e-01	2.811515e-02	0.0	7.876726e-01	2.835330e-02	0.0	7.851860e-01	2.860319e-02	0.0	7.826998e-01	2.885676e-02	0.0	7.802132e-01	2.910705e-02	0.0	7.777258e-01	2.934887e-02	0.0	7.752372e-01	2.957879e-02	0.0	7.727477e-01	2.979747e-02	0.0	7.702575e-01	3.000941e-02	0.0	7.677670e-01	3.021649e-02	0.0	7.652761e-01	3.042027e-02	0.0	7.627851e-01	3.062199e-02	0.0	7.602941e-01	3.082274e-02	0.0	7.578030e-01	3.102339e-02	0.0	7.553119e-01	3.122471e-02	0.0	7.528212e-01	3.142976e-02	0.0	7.503311e-01	3.164143e-02	0.0	7.478411e-01	3.185610e-02	0.0	7.453511e-01	3.206905e-02	0.0	7.428606e-01	3.227672e-02	0.0	7.403695e-01	3.247765e-02	0.0	7.378779e-01	3.267186e-02	0.0	7.353859e-01	3.286004e-02	0.0	7.328934e-01	3.304304e-02	0.0	7.304007e-01	3.322165e-02	0.0	7.279077e-01	3.339668e-02	0.0	7.254145e-01	3.356925e-02	0.0	7.229212e-01	3.374009e-02	0.0	7.204278e-01	3.390963e-02	0.0	7.179343e-01	3.407814e-02	0.0	7.154408e-01	3.424580e-02	0.0	7.129472e-01	3.441275e-02	0.0	7.104536e-01	3.457908e-02	0.0	7.079600e-01	3.474488e-02	0.0	7.054663e-01	3.491018e-02	0.0	7.029726e-01	3.507505e-02	0.0	7.004789e-01	3.523952e-02	0.0	6.979851e-01	3.540361e-02	0.0	6.954913e-01	3.556734e-02	0.0	6.929975e-01	3.573075e-02	0.0	6.905037e-01	3.589382e-02	0.0	6.880099e-01	3.605658e-02	0.0	6.855160e-01	3.621902e-02	0.0	6.830221e-01	3.638113e-02	0.0	6.805282e-01	3.654289e-02	0.0	6.780343e-01	3.670427e-02	0.0	6.755403e-01	3.686520e-02	0.0	6.730464e-01	3.702597e-02	0.0	6.705524e-01	3.718730e-02	0.0	6.680585e-01	3.734890e-02	0.0	6.655645e-01	3.750979e-02	0.0	6.630704e-01	3.766751e-02	0.0	6.605758e-01	3.781852e-02	0.0	6.580808e-01	3.796176e-02	0.0	6.555854e-01	3.809962e-02	0.0	6.530899e-01	3.823465e-02	0.0	6.505943e-01	3.836829e-02	0.0	6.480987e-01	3.850119e-02	0.0	6.456031e-01	3.863339e-02	0.0	6.431074e-01	3.876490e-02	0.0	6.406117e-01	3.889573e-02	0.0	6.381159e-01	3.902586e-02	0.0	6.356201e-01	3.915530e-02	0.0	6.331243e-01	3.928401e-02	0.0	6.306284e-01	3.941197e-02	0.0	6.281325e-01	3.953916e-02	0.0	6.256365e-01	3.966553e-02	0.0	6.231406e-01	3.979105e-02	0.0	6.206445e-01	3.991565e-02	0.0	6.181484e-01	4.003928e-02	0.0	6.156523e-01	4.016186e-02	0.0	6.131561e-01	4.028332e-02	0.0	6.106598e-01	4.040356e-02	0.0	6.081635e-01	4.052246e-02	0.0	6.056671e-01	4.063988e-02	0.0	6.031707e-01	4.075566e-02	0.0	6.006741e-01	4.086959e-02	0.0	5.981775e-01	4.098194e-02	0.0	5.956808e-01	4.109386e-02	0.0	5.931842e-01	4.120528e-02	0.0	5.906875e-01	4.131604e-02	0.0	5.881908e-01	4.142599e-02	0.0	5.856940e-01	4.153499e-02	0.0	5.831972e-01	4.164289e-02	0.0	5.807003e-01	4.174954e-02	0.0	5.782034e-01	4.185478e-02	0.0	5.757064e-01	4.195847e-02	0.0	5.732093e-01	4.206046e-02	0.0	5.707122e-01	4.216060e-02	0.0	5.682149e-01	4.225874e-02	0.0	5.657176e-01	4.235473e-02	0.0	5.632202e-01	4.244843e-02	0.0	5.607228e-01	4.253967e-02	0.0	5.582252e-01	4.262832e-02	0.0	5.557275e-01	4.271422e-02	0.0	5.532297e-01	4.279722e-02	0.0	5.507319e-01	4.287717e-02	0.0	5.482339e-01	4.295335e-02	0.0	5.457357e-01	4.302426e-02	0.0	5.432375e-01	4.309033e-02	0.0	5.407391e-01	4.315208e-02	0.0	5.382406e-01	4.321004e-02	0.0	5.357421e-01	4.326471e-02	0.0	5.332434e-01	4.331664e-02	0.0	5.307448e-01	4.336634e-02	0.0	5.282461e-01	4.341433e-02	0.0	5.257474e-01	4.346115e-02	0.0	5.232487e-01	4.350731e-02	0.0	5.207499e-01	4.355333e-02	0.0	5.182512e-01	4.359975e-02	0.0	5.157525e-01	4.364709e-02	0.0	5.132539e-01	4.369586e-02	0.0	5.107552e-01	4.374660e-02	0.0	5.082566e-01	4.379982e-02	0.0	5.057581e-01	4.385606e-02	0.0	5.032597e-01	4.391583e-02	0.0	5.007614e-01	4.397966e-02	0.0	4.982631e-01	4.404807e-02	0.0	4.957651e-01	4.412106e-02	0.0	4.932671e-01	4.419809e-02	0.0	4.907692e-01	4.427859e-02	0.0	4.882715e-01	4.436201e-02	0.0	4.857738e-01	4.444779e-02	0.0	4.832762e-01	4.453535e-02	0.0	4.807786e-01	4.462415e-02	0.0	4.782811e-01	4.471362e-02	0.0	4.757835e-01	4.480321e-02	0.0	4.732860e-01	4.489235e-02	0.0	4.707884e-01	4.498048e-02	0.0	4.682907e-01	4.506704e-02	0.0	4.657930e-01	4.515148e-02	0.0	4.632952e-01	4.523322e-02	0.0	4.607973e-01	4.531172e-02	0.0	4.582993e-01	4.538641e-02	0.0	4.558011e-01	4.545672e-02	0.0	4.533028e-01	4.552210e-02	0.0	4.508044e-01	4.558198e-02	0.0	4.483058e-01	4.563631e-02	0.0	4.458072e-01	4.568647e-02	0.0	4.433085e-01	4.573283e-02	0.0	4.408097e-01	4.577564e-02	0.0	4.383108e-01	4.581518e-02	0.0	4.358120e-01	4.585169e-02	0.0	4.333130e-01	4.588545e-02	0.0	4.308141e-01	4.591671e-02	0.0	4.283151e-01	4.594574e-02	0.0	4.258161e-01	4.597280e-02	0.0	4.233171e-01	4.599815e-02	0.0	4.208180e-01	4.602205e-02	0.0	4.183190e-01	4.604476e-02	0.0	4.158199e-01	4.606656e-02	0.0	4.133209e-01	4.608769e-02	0.0	4.108218e-01	4.610842e-02	0.0	4.083228e-01	4.612902e-02	0.0	4.058237e-01	4.614975e-02	0.0	4.033246e-01	4.617086e-02	0.0	4.008256e-01	4.619262e-02	0.0	3.983265e-01	4.621500e-02	0.0	3.958275e-01	4.623715e-02	0.0	3.933284e-01	4.625892e-02	0.0	3.908294e-01	4.628024e-02	0.0	3.883303e-01	4.630103e-02	0.0	3.858312e-01	4.632123e-02	0.0	3.833322e-01	4.634075e-02	0.0	3.808331e-01	4.635952e-02	0.0	3.783340e-01	4.637747e-02	0.0	3.758349e-01	4.639452e-02	0.0	3.733358e-01	4.641059e-02	0.0	3.708367e-01	4.642562e-02	0.0	3.683376e-01	4.643952e-02	0.0	3.658385e-01	4.645222e-02	0.0	3.633394e-01	4.646365e-02	0.0	3.608402e-01	4.647373e-02	0.0	3.583411e-01	4.648238e-02	0.0	3.558420e-01	4.648954e-02	0.0	3.533428e-01	4.649512e-02	0.0	3.508437e-01	4.649906e-02	0.0	3.483445e-01	4.650138e-02	0.0	3.458454e-01	4.650243e-02	0.0	3.433462e-01	4.650223e-02	0.0	3.408471e-01	4.650078e-02	0.0	3.383479e-01	4.649808e-02	0.0	3.358488e-01	4.649413e-02	0.0	3.333496e-01	4.648893e-02	0.0	3.308505e-01	4.648248e-02	0.0	3.283514e-01	4.647478e-02	0.0	3.258522e-01	4.646584e-02	0.0	3.233531e-01	4.645564e-02	0.0	3.208540e-01	4.644420e-02	0.0	3.183549e-01	4.643150e-02	0.0	3.158558e-01	4.641756e-02	0.0	3.133567e-01	4.640237e-02	0.0	3.108576e-01	4.638593e-02	0.0	3.083585e-01	4.636824e-02	0.0	3.058594e-01	4.634930e-02	0.0	3.033603e-01	4.632911e-02	0.0	3.008613e-01	4.630768e-02	0.0	2.983622e-01	4.628515e-02	0.0	2.958632e-01	4.626200e-02	0.0	2.933641e-01	4.623817e-02	0.0	2.908651e-01	4.621353e-02	0.0	2.883661e-01	4.618799e-02	0.0	2.858671e-01	4.616143e-02	0.0	2.833681e-01	4.613373e-02	0.0	2.808691e-01	4.610478e-02	0.0	2.783702e-01	4.607447e-02	0.0	2.758712e-01	4.604270e-02	0.0	2.733723e-01	4.600933e-02	0.0	2.708734e-01	4.597427e-02	0.0	2.683745e-01	4.593741e-02	0.0	2.658757e-01	4.589862e-02	0.0	2.633768e-01	4.585780e-02	0.0	2.608781e-01	4.581483e-02	0.0	2.583793e-01	4.576960e-02	0.0	2.558806e-01	4.572201e-02	0.0	2.533820e-01	4.567193e-02	0.0	2.508834e-01	4.561926e-02	0.0	2.483848e-01	4.556415e-02	0.0	2.458863e-01	4.550741e-02	0.0	2.433879e-01	4.544906e-02	0.0	2.408894e-01	4.538900e-02	0.0	2.383911e-01	4.532718e-02	0.0	2.358927e-01	4.526351e-02	0.0	2.333944e-01	4.519793e-02	0.0	2.308962e-01	4.513034e-02	0.0	2.283980e-01	4.506069e-02	0.0	2.258999e-01	4.498890e-02	0.0	2.234018e-01	4.491489e-02	0.0	2.209039e-01	4.483859e-02	0.0	2.184060e-01	4.475992e-02	0.0	2.159081e-01	4.467881e-02	0.0	2.134104e-01	4.459518e-02	0.0	2.109127e-01	4.450897e-02	0.0	2.084151e-01	4.442009e-02	0.0	2.059177e-01	4.432847e-02	0.0	2.034203e-01	4.423404e-02	0.0	2.009231e-01	4.413672e-02	0.0	1.984259e-01	4.403650e-02	0.0	1.959289e-01	4.393359e-02	0.0	1.934320e-01	4.382811e-02	0.0	1.909352e-01	4.372013e-02	0.0	1.884384e-01	4.360972e-02	0.0	1.859418e-01	4.349693e-02	0.0	1.834453e-01	4.338178e-02	0.0	1.809490e-01	4.326430e-02	0.0	1.784527e-01	4.314449e-02	0.0	1.759565e-01	4.302235e-02	0.0	1.734605e-01	4.289786e-02	0.0	1.709646e-01	4.277100e-02	0.0	1.684688e-01	4.264170e-02	0.0	1.659731e-01	4.250992e-02	0.0	1.634775e-01	4.237557e-02	0.0	1.609822e-01	4.223856e-02	0.0	1.584869e-01	4.209876e-02	0.0	1.559918e-01	4.195602e-02	0.0	1.534970e-01	4.181016e-02	0.0	1.510023e-01	4.166095e-02	0.0	1.485078e-01	4.150830e-02	0.0	1.460135e-01	4.135261e-02	0.0	1.435194e-01	4.119369e-02	0.0	1.410255e-01	4.103126e-02	0.0	1.385319e-01	4.086503e-02	0.0	1.360386e-01	4.069471e-02	0.0	1.335456e-01	4.052000e-02	0.0	1.310529e-01	4.034059e-02	0.0	1.285605e-01	4.015619e-02	0.0	1.260686e-01	3.996653e-02	0.0	1.235771e-01	3.977132e-02	0.0	1.210860e-01	3.957032e-02	0.0	1.185954e-01	3.936331e-02	0.0	1.161054e-01	3.915010e-02	0.0	1.136159e-01	3.893054e-02	0.0	1.111270e-01	3.870451e-02	0.0	1.086387e-01	3.847177e-02	0.0	1.061512e-01	3.823146e-02	0.0	1.036643e-01	3.798369e-02	0.0	1.011782e-01	3.772865e-02	0.0	9.869287e-02	3.746648e-02	0.0	9.620827e-02	3.719729e-02	0.0	9.372442e-02	3.692112e-02	0.0	9.124137e-02	3.663798e-02	0.0	8.875912e-02	3.634781e-02	0.0	8.627772e-02	3.605050e-02	0.0	8.379721e-02	3.574585e-02	0.0	8.131765e-02	3.543360e-02	0.0	7.883910e-02	3.511337e-02	0.0	7.636167e-02	3.478463e-02	0.0	7.388555e-02	3.444616e-02	0.0	7.141141e-02	3.409353e-02	0.0	6.893949e-02	3.372563e-02	0.0	6.646993e-02	3.334223e-02	0.0	6.400283e-02	3.294327e-02	0.0	6.153828e-02	3.252889e-02	0.0	5.907630e-02	3.209950e-02	0.0	5.661685e-02	3.165585e-02	0.0	5.415979e-02	3.119911e-02	0.0	5.170489e-02	3.073094e-02	0.0	4.925167e-02	3.025400e-02	0.0	4.679885e-02	2.977507e-02	0.0	4.434779e-02	2.928717e-02	0.0	4.190165e-02	2.877527e-02	0.0	3.946461e-02	2.822178e-02	0.0	3.704086e-02	2.761278e-02	0.0	3.463303e-02	2.694363e-02	0.0	3.224134e-02	2.621885e-02	0.0	2.986710e-02	2.543878e-02	0.0	2.750733e-02	2.461591e-02	0.0	2.515848e-02	2.376234e-02	0.0	2.281
[...]
POINT_DATA 15671

SCALARS Density double 1
LOOKUP_TABLE default
1.169591e+00	1.208072e+00	1.177605e+00	1.185055e+00	1.191703e+00	1.224707e+00	1.224841e+00	1.225029e+00	1.225116e+00	1.204054e+00	1.203037e+00	1.203225e+00	1.203243e+00	1.203115e+00	1.202860e+00	1.202744e+00	1.202848e+00	1.203282e+00	1.204028e+00	1.204687e+00	1.205105e+00	1.205398e+00	1.204978e+00	1.204513e+00	1.204021e+00	1.203739e+00	1.203663e+00	1.203840e+00	1.204249e+00	1.204670e+00	1.204971e+00	1.205262e+00	1.205536e+00	1.205803e+00	1.206033e+00	1.206225e+00	1.206372e+00	1.206235e+00	1.205968e+00	1.205789e+00	1.205757e+00	1.205875e+00	1.206081e+00	1.206297e+00	1.206521e+00	1.206742e+00	1.206952e+00	1.207166e+00	1.207360e+00	1.207530e+00	1.207665e+00	1.207808e+00	1.207940e+00	1.208065e+00	1.208170e+00	1.208253e+00	1.208354e+00	1.208459e+00	1.208563e+00	1.208639e+00	1.208712e+00	1.208784e+00	1.208826e+00	1.208897e+00	1.208956e+00	1.209012e+00	1.209073e+00	1.209126e+00	1.209166e+00	1.209169e+00	1.209095e+00	1.208989e+00	1.208912e+00	1.208985e+00	1.209217e+00	1.209482e+00	1.209712e+00	1.209876e+00	1.209961e+00	1.210047e+00	1.210137e+00	1.210204e+00	1.210261e+00	1.210335e+00	1.210408e+00	1.210467e+00	1.210539e+00	1.210612e+00	1.210645e+00	1.210705e+00	1.210736e+00	1.210810e+00	1.210836e+00	1.210877e+00	1.210941e+00	1.210996e+00	1.211064e+00	1.211124e+00	1.211208e+00	1.211295e+00	1.211327e+00	1.211370e+00	1.211398e+00	1.211419e+00	1.211452e+00	1.211488e+00	1.211518e+00	1.211564e+00	1.211596e+00	1.211627e+00	1.211656e+00	1.211694e+00	1.211726e+00	1.211746e+00	1.211778e+00	1.211857e+00	1.211915e+00	1.211947e+00	1.212017e+00	1.212119e+00	1.212273e+00	1.212424e+00	1.212581e+00	1.212755e+00	1.212902e+00	1.213079e+00	1.213269e+00	1.213445e+00	1.213582e+00	1.213751e+00	1.213901e+00	1.214006e+00	1.214138e+00	1.214255e+00	1.214401e+00	1.214460e+00	1.214530e+00	1.214550e+00	1.214551e+00	1.214494e+00	1.214461e+00	1.214374e+00	1.214300e+00	1.214223e+00	1.214151e+00	1.214061e+00	1.213993e+00	1.213905e+00	1.213839e+00	1.213763e+00	1.213695e+00	1.213626e+00	1.213566e+00	1.213528e+00	1.213517e+00	1.213518e+00	1.213529e+00	1.213599e+00	1.213706e+00	1.213813e+00	1.213895e+00	1.213995e+00	1.214079e+00	1.214165e+00	1.214261e+00	1.214372e+00	1.214463e+00	1.214563e+00	1.214663e+00	1.214736e+00	1.214824e+00	1.214917e+00	1.215001e+00	1.215064e+00	1.215141e+00	1.215196e+00	1.215227e+00	1.215250e+00	1.215263e+00	1.215273e+00	1.215290e+00	1.215325e+00	1.215351e+00	1.215386e+00	1.215407e+00	1.215420e+00	1.215442e+00	1.215431e+00	1.215460e+00	1.215482e+00	1.215493e+00	1.215529e+00	1.215548e+00	1.215578e+00	1.215611e+00	1.215632e+00	1.215677e+00	1.215716e+00	1.215772e+00	1.215808e+00	1.215846e+00	1.215880e+00	1.215921e+00	1.215955e+00	1.215999e+00	1.216029e+00	1.216053e+00	1.216096e+00	1.216140e+00	1.216158e+00	1.216179e+00	1.216229e+00	1.216269e+00	1.216311e+00	1.216341e+00	1.216388e+00	1.216426e+00	1.216474e+00	1.216524e+00	1.216525e+00	1.216550e+00	1.216547e+00	1.216566e+00	1.216579e+00	1.216607e+00	1.216619e+00	1.216645e+00	1.216650e+00	1.216675e+00	1.216677e+00	1.216699e+00	1.216719e+00	1.216752e+00	1.216765e+00	1.216807e+00	1.216823e+00	1.216844e+00	1.216892e+00	1.216965e+00	1.217001e+00	1.217041e+00	1.217072e+00	1.217113e+00	1.217141e+00	1.217156e+00	1.217171e+00	1.217216e+00	1.217258e+00	1.217251e+00	1.217250e+00	1.217290e+00	1.217330e+00	1.217347e+00	1.217415e+00	1.217453e+00	1.217448e+00	1.217478e+00	1.217506e+00	1.217574e+00	1.217618e+00	1.217683e+00	1.217711e+00	1.217761e+00	1.217790e+00	1.217833e+00	1.217856e+00	1.217916e+00	1.217940e+00	1.218026e+00	1.218097e+00	1.218089e+00	1.218088e+00	1.218138e+00	1.218112e+00	1.218093e+00	1.218105e+00	1.218125e+00	1.218151e+00	1.218189e+00	1.218213e+00	1.218218e+00	1.218254e+00	1.218257e+00	1.218307e+00	1.218317e+00	1.218353e+00	1.218321e+00	1.218350e+00	1.218353e+00	1.218392e+00	1.218428e+00	1.218460e+00	1.218585e+00	1.218680e+00	1.218730e+00	1.218723e+00	1.218714e+00	1.218870e+00	1.218972e+00	1.219040e+00	1.219116e+00	1.219106e+00	1.219180e+00	1.219271e+00	1.219360e+00	1.219424e+00	1.219325e+00	1.219259e+00	1.219306e+00	1.219364e+00	1.219496e+00	1.219835e+00	1.220096e+00	1.220441e+00	1.220591e+00	1.220772e+00	1.221146e+00	1.221344e+00	1.221582e+00	1.221257e+00	1.220609e+00	1.220415e+00	1.220619e+00	1.220910e+00	1.221513e+00	1.222507e+00	1.224200e+00	1.225404e+00	1.226376e+00	1.227260e+00	1.228007e+00	1.227884e+00	1.228052e+00	1.227848e+00	1.227195e+00	1.227816e+00	1.236874e+00	1.241987e+00	1.245084e+00	1.251687e+00	1.254605e+00	1.257829e+00	1.257113e+00	1.258091e+00	1.260507e+00	1.257679e+00	1.253653e+00	1.247430e+00	1.240151e+00	1.230799e+00	1.217875e+00	1.208908e+00	1.205584e+00	1.202201e+00	1.200380e+00	1.198874e+00	1.197490e+00	1.197758e+00	1.198863e+00	1.199326e+00	1.199480e+00	1.199530e+00	1.199518e+00	1.200056e+00	1.200473e+00	1.200801e+00	1.201088e+00	1.201231e+00	1.201473e+00	1.201815e+00	1.202278e+00	1.202653e+00	1.203096e+00	1.203505e+00	1.203689e+00	1.203811e+00	1.203958e+00	1.204017e+00	1.204286e+00	1.204443e+00	1.204753e+00	1.205106e+00	1.205342e+00	1.205616e+00	1.205825e+00	1.206151e+00	1.206374e+00	1.206597e+00	1.206738e+00	1.206950e+00	1.207148e+00	1.207282e+00	1.207471e+00	1.207570e+00	1.207753e+00	1.207933e+00	1.208167e+00	1.208367e+00	1.208596e+00	1.208755e+00	1.208915e+00	1.209075e+00	1.209294e+00	1.209436e+00	1.209628e+00	1.209797e+00	1.209994e+00	1.210117e+00	1.210318e+00	1.210478e+00	1.210727e+00	1.210884e+00	1.211010e+00	1.211190e+00	1.211292e+00	1.211475e+00	1.211591e+00	1.211733e+00	1.211822e+00	1.211972e+00	1.212135e+00	1.212222e+00	1.212365e+00	1.212467e+00	1.212602e+00	1.212690e+00	1.212818e+00	1.212913e+00	1.213049e+00	1.213154e+00	1.213268e+00	1.213369e+00	1.213465e+00	1.213558e+00	1.213659e+00	1.213723e+00	1.213823e+00	1.213914e+00	1.214017e+00	1.214132e+00	1.214228e+00	1.214363e+00	1.214466e+00	1.214568e+00	1.214657e+00	1.214768e+00	1.214849e+00	1.214945e+00	1.215067e+00	1.215187e+00	1.215271e+00	1.215324e+00	1.215412e+00	1.215494e+00	1.215586e+00	1.215664e+00	1.215772e+00	1.215874e+00	1.215993e+00	1.216088e+00	1.216156e+00	1.216252e+00	1.216330e+00	1.216429e+00	1.216503e+00	1.216599e+00	1.216684e+00	1.216793e+00	1.216866e+00	1.216967e+00	1.217095e+00	1.217124e+00	1.217252e+00	1.217336e+00	1.217399e+00	1.217498e+00	1.217578e+00	1.217637e+00	1.217713e+00	1.217794e+00	1.217841e+00	1.217906e+00	1.217965e+00	1.218044e+00	1.218101e+00	1.218175e+00	1.218284e+00	1.218367e+00	1.218425e+00	1.218499e+00	1.218569e+00	1.218612e+00	1.218688e+00	1.218749e+00	1.218830e+00	1.218893e+00	1.218967e+00	1.219037e+00	1.219121e+00	1.219176e+00	1.219251e+00	1.219314e+00	1.219384e+00	1.219444e+00	1.219527e+00	1.219589e+00	1.219666e+00	1.219767e+00	1.219837e+00	1.219883e+00	1.219959e+00	1.220021e+00	1.220094e+00	1.220151e+00	1.220206e+00	1.220262e+00	1.220326e+00	1.220391e+00	1.220435e+00	1.220510e+00	1.220569e+00	1.220625e+00	1.220685e+00	1.220744e+00	1.220808e+00	1.220869e+00	1.220930e+00	1.221007e+00	1.221074e+00	1.221125e+00	1.221203e+00	1.221274e+00	1.221344e+00	1.221397e+00	1.221446e+00	1.221528e+00	1.221586e+00	1.221630e+00	1.221657e+00	1.221719e+00	1.221774e+00	1.221830e+00	1.221887e+00	1.221944e+00	1.221999e+00	1.222048e+00	1.222101e+00	1.222148e+00	1.222190e+00	1.222238e+00	1.222320e+00	1.222405e+00	1.222482e+00	1.222556e+00	1.222611e+00	1.222672e+00	1.222710e+00	1.222742e+00	1.222790e+00	1.222828e+00	1.222866e+00	1.222912e+00	1.222954e+00	1.223013e+00	1.223079e+00	1.223124e+00	1.223173e+00	1.223221e+00	1.223276e+00	1.223317e+00	1.223417e+00	1.223529e+00	1.223630e+00	1.223709e+00	1.223774e+00	1.223836e+00	1.223901e+00	1.223956e+00	1.224010e+00	1.224035e+00	1.224070e+00	1.224117e+00	1.224203e+00	1.224242e+00	1.224298e+00	1.224355e+00	1.224402e+00	1.224472e+00	1.224497e+00	1.224602e+00	1.224698e+00	1.224729e+00	1.224794e+00	1.224935e+00	1.225107e+00	1.225219e+00	1.225366e+00	1.225492e+00	1.225618e+00	1.225784e+00	1.225886e+00	1.226014e+00	1.226184e+00	1.226329e+00	1.226525e+00	1.226601e+00	1.226775e+00	1.226938e+00	1.227060e+00	1.227249e+00	1.227348e+00	1.227277e+00	1.227237e+00	1.227191e+00	1.227206e+00	1.227502e+00	1.227944e+00	1.228357e+00	1.229014e+00	1.231065e+00	1.193467e+00	1.203668e+00	1.206999e+00	1.209201e+00	1.210684e+00	1.211070e+00	1.211068e+00	1.211439e+00	1.211787e+00	1.212204e+00	1.212398e+00	1.212779e+00	1.213005e+00	1.213145e+00	1.213329e+00	1.213412e+00	1.213617e+00	1.213985e+00	1.214287e+00	1.214688e+00	1.214990e+00	1.215096e+00	1.215254e+00	1.215339e+00	1.215622e+00	1.215917e+00	1.216106e+00	1.216313e+00	1.216551e+00	1.216772e+00	1.216865e+00	1.216945e+00	1.217251e+00	1.217355e+00	1.217461e+00	1.217634e+00	1.217767e+00	1.217981e+00	1.218201e+00	1.218317e+00	1.218448e+00	1.218637e+00	1.218723e+00	1.218838e+00	1.219058e+00	1.219062e+00	1.219147e+00	1.219522e+00	1.219621e+00	1.219879e+00	1.220079e+00	1.220207e+00	1.220397e+00	1.220761e+00	1.221077e+00	1.221039e+00	1.221311e+00	1.221475e+00	1.221409e+00	1.221439e+00	1.221649e+00	1.221334e+00	1.221263e+00	1.222344e+00	1.220749e+00	1.219471e+00	1.218054e+00	1.216356e+00	1.213875e+00	1.212486e+00	1.224774e+00	1.224813e+00	1.224828e+00	1.224840e+00	1.224842e+00	1.224844e+00	1.224845e+00	1.224844e+00	1.224842e+00	1.224842e+00	1.224840e+00	1.224840e+00	1.224838e+00	1.224838e+00	1.224839e+00	1.224851e+00	1.224861e+00	1.224872e+00	1.224881e+00	1.224892e+00	1.224908e+00	1.224919e+00	1.224931e+00	1.224945e+00	1.224959e+00	1.224971e+00	1.224981e+00	1.224994e+00	1.225005e+00	1.225018e+00	1.225041e+00	1.225052e+00	1.225062e+00	1.225070e+00	1.225081e+00	1.225090e+00	1.225099e+00	1.225106e+00	1.225110e+00	1.225116e+00	1.225121e+00	1.225123e+00	1.225123e+00	1.225122e+00	1.225120e+00	1.225112e+00	1.225106e+00	1.225101e+00	1.225095e+00	1.225088e+00	1.225078e+00	1.225069e+00	1.225056e+00	1.225036e+00	1.225008e+00	1.224958e+00	1.224874e+00	1.224743e+00	1.224640e+00	1.224637e+00	1.216630e+00	1.214366e+00	1.214620e+00	1.214611e+00	1.214273e+00	1.212912e+00	1.209612e+00	1.206808e+00	1.206552e+00	1.207644e+00	1.208725e+00	1.209466e+00	1.209881e+00	1.209989e+00	1.210003e+00	1.209978e+00	1.209913e+00	1.209791e+00	1.209521e+00	1.209157e+00	1.208647e+00	1.208239e+00	1.207837e+00	1.207445e+00	1.207063e+00	1.206732e+00	1.206299e+00	1.205944e+00	1.205611e+00	1.205242e+00	1.204860e+00	1.204496e+00	1.204201e+00	1.203931e+00	1.203701e+00	1.203356e+00	1.202978e+00	1.202489e+00	1.202155e+00	1.201789e+00	1.201430e+00	1.200984e+00	1.200594e+00	1.200137e+00	1.199625e+00	1.199237e+00	1.198792e+00	1.198332e+00	1.197774e+00	1.197302e+00	1.196803e+00	1.196304e+00	1.195712e+00	1.195157e+00	1.194531e+00	1.194006e+00	1.193427e+00	1.192905e+00	1.192332e+00	1.191748e+00	1.191063e+00	1.190316e+00	1.189376e+00	1.188427e+00	1.187512e+00	1.186654e+00	1.186011e+00	1.185506e+00	1.185034e+00	1.184503e+00	1.183665e+00	1.182794e+00	1.181683e+00	1.180754e+00	1.180025e+00	1.179336e+00	1.178786e+00	1.178280e+00	1.178282e+00	1.178172e+00	1.178181e+00	1.178135e+00	1.178149e+00	1.178083e+00	1.177846e+00	1.177559e+00	1.177136e+00	1.176762e+00	1.176380e+00	1.175987e+00	1.175590e+00	1.175228e+00	1.174883e+00	1.174476e+00	1.174289e+00	1.173737e+00	1.173257e+00	1.172923e+00	1.172167e+00	1.171500e+00	1.170962e+00	1.170055e+00	1.169504e+00	1.169121e+00	1.168915e+00	1.169224e+00	1.169505e+00	1.169537e+00	1.169307e+00	1.168840e+00	1.168656e+00	1.168163e+00	1.167670e+00	1.167190e+00	1.166774e+00	1.166484e+00	1.166276e+00	1.166818e+00	1.167616e+00	1.168406e+00	1.170188e+00	1.170994e+00	1.172224e+00	1.172465e+00	1.172093e+00	1.172786e+00	1.174588e+00	1.177468e+00	1.179794e+00	1.181009e+00	1.180950e+00	1.180261e+00	1.184947e+00	1.188993e+00	1.192189e+00	1.196678e+00	1.198890e+00	1.203474e+00	1.209532e+00	1.214608e+00	1.217782e+00	1.222027e+00	1.228396e+00	1.233011e+00	1.232645e+00	1.231932e+00	1.231494e+00	1.231255e+00	1.231378e+00	1.231338e+00	1.231653e+00	1.231640e+00	1.231601e+00	1.231705e+00	1.231883e+00	1.231876e+00	1.231915e+00	1.231963e+00	1.231910e+00	1.231998e+00	1.232077e+00	1.232096e+00	1.232060e+00	1.232133e+00	1.232176e+00	1.232168e+00	1.232149e+00	1.232167e+00	1.232230e+00	1.232245e+00	1.232362e+00	1.232383e+00	1.232317e+00	1.232340e+00	1.232351e+00	1.232370e+00	1.232472e+00	1.232508e+00	1.232485e+00	1.232450e+00	1.232522e+00	1.232500e+00	1.232478e+00	1.232433e+00	1.232462e+00	1.232439e+00	1.232409e+00	1.232385e+00	1.232442e+00	1.232438e+00	1.232382e+00	1.232346e+00	1.232334e+00	1.232322e+00	1.232407e+00	1.232449e+00	1.232431e+00	1.232396e+00	1.232412e+00	1.232370e+00	1.232401e+00	1.232344e+00	1.232323e+00	1.232318e+00	1.232254e+00	1.232273e+00	1.232259e+00	1.232249e+00	1.232262e+00	1.232260e+00	1.232288e+00	1.232235e+00	1.232226e+00	1.232264e+00	1.232247e+00	1.232161e+00	1.232159e+00	1.232180e+00	1.232148e+00	1.232130e+00	1.232124e+00	1.232096e+00	1.232130e+00	1.232121e+00	1.232095e+00	1.232039e+00	1.232072e+00	1.232056e+00	1.232047e+00	1.232087e+00	1.232036e+00	1.231966e+00	1.231948e+00	1.231940e+00	1.231931e+00	1.231941e+00	1.231896e+00	1.231890e+00	1.231916e+00	1.231913e+00	1.231857e+00	1.231818e+00	1.231843e+00	1.231804e+00	1.231788e+00	1.231762e+00	1.231750e+00	1.231788e+00	1.231783e+00	1.231748e+00	1.231719e+00	1.231737e+00	1.231702e+00	1.231679e+00	1.231688e+00	1.231652e+00	1.231610e+00	1.231606e+00	1.231595e+00	1.231583e+00	1.231596e+00	1.231574e+00	1.231535e+00	1.231507e+00	1.231515e+00	1.231470e+00	1.231439e+00	1.231409e+00	1.231364e+00	1.231366e+00	1.231348e+00	1.231313e+00	1.231286e+00	1.231237e+00	1.231248e+00	1.231252e+00	1.231205e+00	1.231184e+00	1.231154e+00	1.231148e+00	1.231108e+00	1.231083e+00	1.231046e+00	1.231037e+00	1.231009e+00	1.230994e+00	1.230990e+00	1.230950e+00	1.230984e+00	1.230991e+00	1.230975e+00	1.230936e+00	1.230932e+00	1.230904e+00	1.230844e+00	1.230872e+00	1.230799e+00	1.230713e+00	1.230668e+00	1.230632e+00	1.230591e+00	1.230555e+00	1.230486e+00	1.230441e+00	1.230382e+00	1.230326e+00	1.230343e+00	1.230384e+00	1.230424e+00	1.230384e+00	1.230329e+00	1.230267e+00	1.230373e+00	1.230233e+00	1.230197e+00	1.230106e+00	1.229984e+00	1.229907e+00	1.229779e+00	1.229638e+00	1.229537e+00	1.229619e+00	1.229613e+00	1.229573e+00	1.229531e+00	1.229471e+00	1.229425e+00	1.229341e+00	1.229316e+00	1.229306e+00	1.229111e+00	1.229014e+00	1.229098e+00	1.229233e+00	1.229230e+00	1.229204e+00	1.229025e+00	1.228758e+00	1.228357e+00	1.227848e+00	1.228226e+00	1.228872e+00	1.232275e+00	1.147288e+00	1.165131e+00	1.171422e+00	1.173720e+00	1.162844e+00	1.224736e+00	1.225168e+00	1.225327e+00	1.224558e+00	1.225648e+00	1.224291e+00	1.224044e+00	1.226206e+00	1.223574e+00	1.223139e+00	1.220955e+00	1.227135e+00	1.229288e+00	1.221365e+00	1.231021e+00	1.214839e+00	1.226967e+00	1.232824e+00	1.225810e+00	1.220028e+00	1.207339e+00	1.225197e+00	1.233367e+00	1.224157e+00	1.228489e+00	1.226261e+00	1.221600e+00	1.217730e+00	1.225503e+00	1.234083e+00	1.215319e+00	1.200140e+00	1.231876e+00	1.213576e+00	1.226722e+00	1.220362e+00	1.230145e+00	1.230647e+00	1.228167e+00	1.225455e+00	1.224855e+00	1.224928e+00	1.225120e+00	1.209162e+00	1.229578e+00	1.233439e+00	1.234464e+00	1.202112e+00	1.233831e+00	1.232883e+00	1.223281e+00	1.225738e+00	1.230824e+00	1.228135e+00	1.213148e+00	1.217560e+00	1.219865e+00	1.223299e+00	1.225071e+00	1.225731e+00	1.227551e+00	1.228366e+00	1.230031e+00	1.228971e+00	1.196697e+00	1.223238e+00	1.224318e+00	1.223659e+00	1.222112e+00	1.215149e+00	1.208184e+00	1.216860e+00	1.218334e+00	1.219713e+00	1.221679e+00	1.224247e+00	1.225166e+00	1.226501e+00	1.233183e+00	1.233936e+00	1.224510e+00	1.230169e+00	1.228859e+00	1.232453e+00	1.231583e+00	1.220151e+00	1.228254e+00	1.203923e+00	1.233959e+00	1.224833e+00	1.224843e+00	1.219350e+00	1.227799e+00	1.230144e+00	1.223779e+00	1.232365e+00	1.233788e+00	1.233393e+00	1.234472e+00	1.231120e+00	1.232981e+00	1.194724e+00	1.207096e+00	1.210332e+00	1.211682e+00	1.213242e+00	1.214258e+00	1.215282e+00	1.215905e+00	1.222452e+00	1.221502e+00	1.220523e+00	1.219542e+00	1.216715e+00	1.217524e+00	1.224669e+00	1.225061e+00	1.222352e+00	1.232796e+00	1.227034e+00	1.225985e+00	1.218187e+00	1.219016e+00	1.220169e+00	1.221384e+00	1.229913e+00	1.211862e+00	1.222643e+00	1.224806e+00	1.233386e+00	1.218143e+00	1.217303e+00	1.228675e+00	1.226755e+00	1.193583e+00	1.198887e+00	1.205052e+00	1.190137e+00	1.227228e+00	1.232497e+00	1.232165e+00	1.231635e+00	1.224878e+00	1.218269e+00	1.232078e+00	1.224987e+00	1.224826e+00	1.224059e+00	1.227383e+00	1.219570e+00	1.233374e+00	1.233185e+00	1.230525e+00	1.233534e+00	1.230729e+00	1.225245e+00	1.224760e+00	1.223433e+00	1.229183e+00	1.226729e+00	1.231561e+00	1.208246e+00	1.234208e+00	1.209274e+00	1.231707e+00	1.226937e+00	1.223116e+00	1.224535e+00	1.225346e+00	1.231005e+00	1.196463e+00	1.229275e+00	1.210036e+00	1.229970e+00	1.234180e+00	1.232794e+00	1.232629e+00	1.237200e+00	1.231687e+00	1.222258e+00	1.221635e+00	1.211633e+00	1.212811e+00	1.215431e+00	1.216758e+00	1.219875e+00	1.228019e+00	1.201644e+00	1.233162e+00	1.229981e+00	1.223567e+00	1.224384e+00	1.229735e+00	1.213667e+00	1.216403e+00	1.209268e+00	1.233216e+00	1.231774e+00	1.242046e+00	1.235264e+00	1.228508e+00	1.232277e+00	1.223222e+00	1.232574e+00	1.220810e+00	1.214043e+00	1.233869e+00	1.215052e+00	1.186822e+00	1.218563e+00	1.218465e+00	1.225754e+00	1.220989e+00	1.217161e+00	1.216341e+00	1.226931e+00	1.211401e+00	1.224647e+00	1.185949e+00	1.225261e+00	1.225207e+00	1.213011e+00	1.225733e+00	1.219953e+00	1.215470e+00	1.222448e+00	1.223116e+00	1.218046e+00	1.210528e+00	1.205126e+00	1.214432e+00	1.211911e+00	1.216363e+00	1.215604e+00	1.217814e+00	1.225619e+00	1.219614e+00	1.229277e+00	1.217035e+00	1.218629e+00	1.232844e+00	1.190828e+00	1.232260e+00	1.219733e+00	1.220461e+00	1.220951e+00	1.215668e+00	1.224834e+00	1.223791e+00	1.210619e+00	1.218751e+00	1.227988e+00	1.227930e+00	1.225381e+00	1.229749e+00	1.224614e+00	1.214821e+00	1.216357e+00	1.215503e+00	1.217843e+00	1.192158e+00	1.197459e+00	1.219351e+00	1.206753e+00	1.218683e+00	1.232269e+00	1.234309e+00	1.201139e+00	1.204605e+00	1.225979e+00	1.218567e+00	1.233392e+00	1.224632e+00	1.231391e+00	1.231882e+00	1.214126e+00	1.213476e+00	1.230975e+00	1.223141e+00	1.203403e+00	1.226730e+00	1.185331e+00	1.210228e+00	1.212462e+00	1.227107e+00	1.232043e+00	1.232793e+00	1.188477e+00	1.226901e+00	1.232964e+00	1.229970e+00	1.219504e+00	1.216950e+00	1.232443e+00	1.223765e+00	1.218939e+00	1.212651e+00	1.232920e+00	1.230575e+00	1.231255e+00	1.231089e+00	1.222986e+00	1.233066e+00	1.226784e+00	1.227291e+00	1.225168e+00	1.224293e+00	1.224639e+00	1.228612e+00	1.232593e+00	1.229754e+00	1.230162e+00	1.221970e+00	1.214219e+00	1.213166e+00	1.216999e+00	1.221176e+00	1.224726e+00	1.222664e+00	1.231996e+00	1.229438e+00	1.228733e+00	1.224784e+00	1.226382e+00	1.226405e+00	1.225696e+00	1.208110e+00	1.222091e+00	1.235578e+00	1.231023e+00	1.224427e+00	1.231592e+00	1.222467e+00	1.241379e+00	1.211430e+00	1.205720e+00	1.232748e+00	1.227495e+00	1.233612e+00	1.233703e+00	1.222340e+00	1.234363e+00	1.232999e+00	1.218433e+00	1.232578e+00	1.222177e+00	1.205526e+00	1.233374e+00	1.231020e+00	1.234053e+00	1.212279e+00	1.232860e+00	1.222905e+00	1.218951e+00	1.211205e+00	1.222700e+00	1.224449e+00	1.229276e+00	1.224166e+00	1.211894e+00	1.210725e+00	1.226054e+00	1.225960e+00	1.207029e+00	1.209147e+00	1.223362e+00	1.218444e+00	1.224812e+00	1.232146e+00	1.224799e+00	1.224371e+00	1.231932e+00	1.217008e+00	1.215106e+00	1.193307e+00	1.201644e+00	1.217531e+00	1.218158e+00	1.211837e+00	1.211679e+00	1.225620e+00	1.229126e+00	1.234284e+00	1.218585e+00	1.223124e+00	1.232784e+00	1.227323e+00	1.225058e+00	1.225061e+00	1.220326e+00	1.220366e+00	1.224054e+00	1.229872e+00	1.225138e+00	1.223012e+00	1.224845e+00	1.224033e+00	1.214109e+00	1.234067e+00	1.221362e+00	1.232640e+00	1.217477e+00	1.224870e+00	1.229038e+00	1.211157e+00	1.206592e+00	1.232323e+00	1.225106e+00	1.224741e+00	1.213349e+00	1.231489e+00	1.231296e+00	1.181494e+00	1.232478e+00	1.227649e+00	1.213048e+00	1.212719e+00	1.231560e+00	1.230820e+00	1.219574e+00	1.213516e+00	1.220001e+00	1.224297e+00	1.213759e+00	1.225844e+00	1.225366e+00	1.225477e+00	1.215865e+00	1.184534e+00	1.185864e+00	1.209707e+00	1.233870e+00	1.231315e+00	1.214371e+00	1.211696e+00	1.21933