# vtk DataFile Version 3.0
vtk output
ASCII
DATASET UNSTRUCTURED_GRID
POINTS 7030 double
1.000000e+00	-2.000000e-04	0.0	1.000000e+00	-1.000000e-02	0.0	3.000000e+01	0.000000e+00	0.0	0.000000e+00	3.000000e+01	0.0	-3.000000e+01	0.000000e+00	0.0	0.000000e+00	-3.000000e+01	0.0	9.950827e-01	6.845698e-04	0.0	9.901756e-01	1.623945e-03	0.0	9.852661e-01	2.550967e-03	0.0	9.803543e-01	3.465804e-03	0.0	9.754388e-01	4.360156e-03	0.0	9.705158e-01	5.212720e-03	0.0	9.655892e-01	6.044226e-03	0.0	9.606617e-01	6.870151e-03	0.0	9.557326e-01	7.686670e-03	0.0	9.508016e-01	8.491205e-03	0.0	9.458683e-01	9.281614e-03	0.0	9.409324e-01	1.005581e-02	0.0	9.359948e-01	1.081901e-02	0.0	9.310570e-01	1.158159e-02	0.0	9.261185e-01	1.233861e-02	0.0	9.211784e-01	1.308574e-02	0.0	9.162363e-01	1.381944e-02	0.0	9.112918e-01	1.453680e-02	0.0	9.063447e-01	1.523538e-02	0.0	9.013946e-01	1.591313e-02	0.0	8.964418e-01	1.657035e-02	0.0	8.914870e-01	1.721302e-02	0.0	8.865307e-01	1.784348e-02	0.0	8.815731e-01	1.846319e-02	0.0	8.766142e-01	1.907318e-02	0.0	8.716542e-01	1.967419e-02	0.0	8.666932e-01	2.026672e-02	0.0	8.617313e-01	2.085107e-02	0.0	8.567684e-01	2.142735e-02	0.0	8.518045e-01	2.199553e-02	0.0	8.468397e-01	2.255531e-02	0.0	8.418740e-01	2.310636e-02	0.0	8.369072e-01	2.364863e-02	0.0	8.319395e-01	2.418212e-02	0.0	8.269709e-01	2.470683e-02	0.0	8.220014e-01	2.522274e-02	0.0	8.170309e-01	2.572985e-02	0.0	8.120596e-01	2.622816e-02	0.0	8.070874e-01	2.671766e-02	0.0	8.021143e-01	2.719834e-02	0.0	7.971404e-01	2.766989e-02	0.0	7.921654e-01	2.813116e-02	0.0	7.871896e-01	2.858256e-02	0.0	7.822130e-01	2.902467e-02	0.0	7.772356e-01	2.945805e-02	0.0	7.722574e-01	2.988330e-02	0.0	7.672787e-01	3.030100e-02	0.0	7.622993e-01	3.071174e-02	0.0	7.573195e-01	3.111609e-02	0.0	7.523392e-01	3.151465e-02	0.0	7.473584e-01	3.190745e-02	0.0	7.423769e-01	3.229212e-02	0.0	7.373949e-01	3.266880e-02	0.0	7.324123e-01	3.303810e-02	0.0	7.274292e-01	3.340059e-02	0.0	7.224457e-01	3.375686e-02	0.0	7.174618e-01	3.410751e-02	0.0	7.124775e-01	3.445311e-02	0.0	7.074929e-01	3.479427e-02	0.0	7.025081e-01	3.513157e-02	0.0	6.975230e-01	3.546546e-02	0.0	6.925376e-01	3.579536e-02	0.0	6.875520e-01	3.612085e-02	0.0	6.825661e-01	3.644164e-02	0.0	6.775798e-01	3.675743e-02	0.0	6.725932e-01	3.706793e-02	0.0	6.676063e-01	3.737283e-02	0.0	6.626190e-01	3.767185e-02	0.0	6.576313e-01	3.796467e-02	0.0	6.526433e-01	3.825101e-02	0.0	6.476548e-01	3.853056e-02	0.0	6.426660e-01	3.880333e-02	0.0	6.376769e-01	3.906958e-02	0.0	6.326874e-01	3.932962e-02	0.0	6.276976e-01	3.958373e-02	0.0	6.227076e-01	3.983223e-02	0.0	6.177172e-01	4.007539e-02	0.0	6.127267e-01	4.031352e-02	0.0	6.077359e-01	4.054691e-02	0.0	6.027449e-01	4.077587e-02	0.0	5.977537e-01	4.100096e-02	0.0	5.927624e-01	4.122404e-02	0.0	5.877710e-01	4.144439e-02	0.0	5.827795e-01	4.166082e-02	0.0	5.777877e-01	4.187215e-02	0.0	5.727957e-01	4.207718e-02	0.0	5.678033e-01	4.227472e-02	0.0	5.628106e-01	4.246357e-02	0.0	5.578176e-01	4.264253e-02	0.0	5.528242e-01	4.281041e-02	0.0	5.478303e-01	4.296515e-02	0.0	5.428359e-01	4.310054e-02	0.0	5.378411e-01	4.321899e-02	0.0	5.328459e-01	4.332468e-02	0.0	5.278506e-01	4.342181e-02	0.0	5.228552e-01	4.351455e-02	0.0	5.178598e-01	4.360709e-02	0.0	5.128645e-01	4.370362e-02	0.0	5.078694e-01	4.380833e-02	0.0	5.028745e-01	4.392540e-02	0.0	4.978800e-01	4.405898e-02	0.0	4.928861e-01	4.421016e-02	0.0	4.878925e-01	4.437489e-02	0.0	4.828993e-01	4.454869e-02	0.0	4.779062e-01	4.472708e-02	0.0	4.729132e-01	4.490558e-02	0.0	4.679200e-01	4.507973e-02	0.0	4.629264e-01	4.524503e-02	0.0	4.579325e-01	4.539702e-02	0.0	4.529381e-01	4.553120e-02	0.0	4.479431e-01	4.564384e-02	0.0	4.429478e-01	4.573922e-02	0.0	4.379522e-01	4.582060e-02	0.0	4.329564e-01	4.589006e-02	0.0	4.279605e-01	4.594969e-02	0.0	4.229645e-01	4.600160e-02	0.0	4.179685e-01	4.604787e-02	0.0	4.129724e-01	4.609060e-02	0.0	4.079763e-01	4.613188e-02	0.0	4.029803e-01	4.617381e-02	0.0	3.979842e-01	4.621805e-02	0.0	3.929882e-01	4.626185e-02	0.0	3.879921e-01	4.630380e-02	0.0	3.829960e-01	4.634332e-02	0.0	3.779999e-01	4.637980e-02	0.0	3.730037e-01	4.641265e-02	0.0	3.680076e-01	4.644127e-02	0.0	3.630114e-01	4.646505e-02	0.0	3.580151e-01	4.648340e-02	0.0	3.530189e-01	4.649573e-02	0.0	3.480227e-01	4.650159e-02	0.0	3.430264e-01	4.650211e-02	0.0	3.380302e-01	4.649764e-02	0.0	3.330339e-01	4.648818e-02	0.0	3.280377e-01	4.647373e-02	0.0	3.230415e-01	4.645428e-02	0.0	3.180453e-01	4.642984e-02	0.0	3.130491e-01	4.640041e-02	0.0	3.080530e-01	4.636599e-02	0.0	3.030569e-01	4.632658e-02	0.0	2.980608e-01	4.628239e-02	0.0	2.930648e-01	4.623526e-02	0.0	2.880688e-01	4.618489e-02	0.0	2.830729e-01	4.613037e-02	0.0	2.780770e-01	4.607082e-02	0.0	2.730812e-01	4.600534e-02	0.0	2.680854e-01	4.593302e-02	0.0	2.630898e-01	4.585297e-02	0.0	2.580944e-01	4.576430e-02	0.0	2.530991e-01	4.566610e-02	0.0	2.481040e-01	4.555785e-02	0.0	2.431091e-01	4.544244e-02	0.0	2.381143e-01	4.532022e-02	0.0	2.331198e-01	4.519059e-02	0.0	2.281254e-01	4.505297e-02	0.0	2.231313e-01	4.490674e-02	0.0	2.181375e-01	4.475132e-02	0.0	2.131439e-01	4.458611e-02	0.0	2.081508e-01	4.441052e-02	0.0	2.031580e-01	4.422395e-02	0.0	1.981657e-01	4.402590e-02	0.0	1.931738e-01	4.381706e-02	0.0	1.881824e-01	4.359826e-02	0.0	1.831913e-01	4.336993e-02	0.0	1.782007e-01	4.313227e-02	0.0	1.732106e-01	4.288527e-02	0.0	1.682209e-01	4.262873e-02	0.0	1.632318e-01	4.236220e-02	0.0	1.582432e-01	4.208495e-02	0.0	1.532554e-01	4.179586e-02	0.0	1.482683e-01	4.149348e-02	0.0	1.432820e-01	4.117838e-02	0.0	1.382966e-01	4.084913e-02	0.0	1.333123e-01	4.050341e-02	0.0	1.283294e-01	4.013883e-02	0.0	1.233480e-01	3.975309e-02	0.0	1.183686e-01	3.934414e-02	0.0	1.133912e-01	3.891040e-02	0.0	1.084161e-01	3.845058e-02	0.0	1.034439e-01	3.796137e-02	0.0	9.847462e-02	3.744312e-02	0.0	9.350834e-02	3.689677e-02	0.0	8.854521e-02	3.632247e-02	0.0	8.358548e-02	3.571949e-02	0.0	7.862958e-02	3.508591e-02	0.0	7.367829e-02	3.441721e-02	0.0	6.873463e-02	3.369443e-02	0.0	6.380040e-02	3.290983e-02	0.0	5.887631e-02	3.206396e-02	0.0	5.396220e-02	3.116184e-02	0.0	4.905632e-02	3.021592e-02	0.0	4.415476e-02	2.924792e-02	0.0	3.927503e-02	2.817640e-02	0.0	3.444787e-02	2.688958e-02	0.0	2.968645e-02	2.537724e-02	0.0	2.498142e-02	2.369681e-02	0.0	2.031304e-02	2.191690e-02	0.0	1.567738e-02	2.005346e-02	0.0	1.110239e-02	1.804753e-02	0.0	7.113798e-03	1.509349e-02	0.0	3.719650e-03	1.145621e-02	0.0	1.325794e-03	7.081222e-03	0.0	1.405336e-04	2.238434e-03	0.0	2.132047e-04	-2.740549e-03	0.0	1.521617e-03	-7.549236e-03	0.0	4.014175e-03	-1.186932e-02	0.0	7.513512e-03	-1.540602e-02	0.0	1.164430e-02	-1.821070e-02	0.0	1.606117e-02	-2.054277e-02	0.0	2.067540e-02	-2.245502e-02	0.0	2.538188e-02	-2.413104e-02	0.0	3.014686e-02	-2.563251e-02	0.0	3.496288e-02	-2.696172e-02	0.0	3.980689e-02	-2.818528e-02	0.0	4.467664e-02	-2.930199e-02	0.0	4.956894e-02	-3.031545e-02	0.0	5.447537e-02	-3.125848e-02	0.0	5.939048e-02	-3.215513e-02	0.0	6.431565e-02	-3.299474e-02	0.0	6.925090e-02	-3.377285e-02	0.0	7.419549e-02	-3.448925e-02	0.0	7.914736e-02	-3.515365e-02	0.0	8.410369e-02	-3.578390e-02	0.0	8.906378e-02	-3.638381e-02	0.0	9.402725e-02	-3.695517e-02	0.0	9.899385e-02	-3.749861e-02	0.0	1.039635e-01	-3.801389e-02	0.0	1.089360e-01	-3.849997e-02	0.0	1.139113e-01	-3.895693e-02	0.0	1.188889e-01	-3.938802e-02	0.0	1.238686e-01	-3.979446e-02	0.0	1.288501e-01	-4.017789e-02	0.0	1.338332e-01	-4.054039e-02	0.0	1.388176e-01	-4.088428e-02	0.0	1.438031e-01	-4.121193e-02	0.0	1.487895e-01	-4.152569e-02	0.0	1.537766e-01	-4.182667e-02	0.0	1.587646e-01	-4.211446e-02	0.0	1.637532e-01	-4.239054e-02	0.0	1.687424e-01	-4.265600e-02	0.0	1.737321e-01	-4.291153e-02	0.0	1.787223e-01	-4.315754e-02	0.0	1.837129e-01	-4.339423e-02	0.0	1.887040e-01	-4.362158e-02	0.0	1.936955e-01	-4.383936e-02	0.0	1.986875e-01	-4.404712e-02	0.0	2.036798e-01	-4.424398e-02	0.0	2.086726e-01	-4.442938e-02	0.0	2.136658e-01	-4.460385e-02	0.0	2.186594e-01	-4.476801e-02	0.0	2.236532e-01	-4.492244e-02	0.0	2.286474e-01	-4.506774e-02	0.0	2.336418e-01	-4.520451e-02	0.0	2.386364e-01	-4.533333e-02	0.0	2.436311e-01	-4.545481e-02	0.0	2.486261e-01	-4.556954e-02	0.0	2.536212e-01	-4.567684e-02	0.0	2.586165e-01	-4.577400e-02	0.0	2.636119e-01	-4.586173e-02	0.0	2.686076e-01	-4.594092e-02	0.0	2.736033e-01	-4.601249e-02	0.0	2.785991e-01	-4.607731e-02	0.0	2.835950e-01	-4.613629e-02	0.0	2.885910e-01	-4.619033e-02	0.0	2.935870e-01	-4.624032e-02	0.0	2.985830e-01	-4.628716e-02	0.0	3.035791e-01	-4.633093e-02	0.0	3.085752e-01	-4.636982e-02	0.0	3.135713e-01	-4.640372e-02	0.0	3.185675e-01	-4.643263e-02	0.0	3.235637e-01	-4.645655e-02	0.0	3.285599e-01	-4.647547e-02	0.0	3.335561e-01	-4.648940e-02	0.0	3.385524e-01	-4.649834e-02	0.0	3.435486e-01	-4.650229e-02	0.0	3.485449e-01	-4.650124e-02	0.0	3.535411e-01	-4.649497e-02	0.0	3.585373e-01	-4.648297e-02	0.0	3.635336e-01	-4.646548e-02	0.0	3.685298e-01	-4.644281e-02	0.0	3.735259e-01	-4.641527e-02	0.0	3.785221e-01	-4.638314e-02	0.0	3.835182e-01	-4.634673e-02	0.0	3.885143e-01	-4.630634e-02	0.0	3.935103e-01	-4.626226e-02	0.0	3.985064e-01	-4.621480e-02	0.0	4.035024e-01	-4.616422e-02	0.0	4.084983e-01	-4.611044e-02	0.0	4.134942e-01	-4.605315e-02	0.0	4.184901e-01	-4.599206e-02	0.0	4.234859e-01	-4.592686e-02	0.0	4.284817e-01	-4.585727e-02	0.0	4.334774e-01	-4.578297e-02	0.0	4.384730e-01	-4.570368e-02	0.0	4.434686e-01	-4.561909e-02	0.0	4.484640e-01	-4.552890e-02	0.0	4.534593e-01	-4.543374e-02	0.0	4.584546e-01	-4.533578e-02	0.0	4.634499e-01	-4.523430e-02	0.0	4.684450e-01	-4.512841e-02	0.0	4.734400e-01	-4.501721e-02	0.0	4.784349e-01	-4.489981e-02	0.0	4.834296e-01	-4.477531e-02	0.0	4.884241e-01	-4.464281e-02	0.0	4.934183e-01	-4.450143e-02	0.0	4.984123e-01	-4.435026e-02	0.0	5.034060e-01	-4.419045e-02	0.0	5.083995e-01	-4.402697e-02	0.0	5.133929e-01	-4.385849e-02	0.0	5.183861e-01	-4.368321e-02	0.0	5.233790e-01	-4.349934e-02	0.0	5.283715e-01	-4.330511e-02	0.0	5.333634e-01	-4.309872e-02	0.0	5.383548e-01	-4.287839e-02	0.0	5.433455e-01	-4.264234e-02	0.0	5.483353e-01	-4.238880e-02	0.0	5.533243e-01	-4.211946e-02	0.0	5.583129e-01	-4.184328e-02	0.0	5.633010e-01	-4.155818e-02	0.0	5.682884e-01	-4.126120e-02	0.0	5.732749e-
[...]
POINT_DATA 7030

SCALARS Density double 1
LOOKUP_TABLE default
1.182500e+00	1.183761e+00	1.224801e+00	1.224930e+00	1.224996e+00	1.225028e+00	1.223473e+00	1.220638e+00	1.219787e+00	1.219239e+00	1.219129e+00	1.219261e+00	1.219104e+00	1.218763e+00	1.218495e+00	1.218285e+00	1.218182e+00	1.218189e+00	1.218018e+00	1.217694e+00	1.217425e+00	1.217231e+00	1.217056e+00	1.216973e+00	1.216891e+00	1.216946e+00	1.216966e+00	1.216961e+00	1.216924e+00	1.216876e+00	1.216795e+00	1.216731e+00	1.216679e+00	1.216613e+00	1.216536e+00	1.216468e+00	1.216390e+00	1.216328e+00	1.216270e+00	1.216196e+00	1.216132e+00	1.216070e+00	1.216017e+00	1.215977e+00	1.215936e+00	1.215876e+00	1.215859e+00	1.215840e+00	1.215818e+00	1.215808e+00	1.215788e+00	1.215776e+00	1.215787e+00	1.215718e+00	1.215692e+00	1.215667e+00	1.215656e+00	1.215645e+00	1.215631e+00	1.215630e+00	1.215631e+00	1.215598e+00	1.215575e+00	1.215577e+00	1.215557e+00	1.215503e+00	1.215453e+00	1.215409e+00	1.215350e+00	1.215295e+00	1.215273e+00	1.215251e+00	1.215216e+00	1.215158e+00	1.215108e+00	1.215167e+00	1.215117e+00	1.215074e+00	1.215084e+00	1.215069e+00	1.215060e+00	1.215036e+00	1.215017e+00	1.214988e+00	1.214950e+00	1.214938e+00	1.214888e+00	1.214822e+00	1.214762e+00	1.214678e+00	1.214604e+00	1.214551e+00	1.214493e+00	1.214439e+00	1.214405e+00	1.214413e+00	1.214505e+00	1.214718e+00	1.214906e+00	1.215097e+00	1.215249e+00	1.215394e+00	1.215496e+00	1.215546e+00	1.215575e+00	1.215467e+00	1.215256e+00	1.215000e+00	1.214710e+00	1.214475e+00	1.214221e+00	1.213956e+00	1.213790e+00	1.213650e+00	1.213573e+00	1.213612e+00	1.213699e+00	1.213769e+00	1.213826e+00	1.213891e+00	1.213994e+00	1.214060e+00	1.214069e+00	1.214092e+00	1.214089e+00	1.213994e+00	1.213896e+00	1.213849e+00	1.213793e+00	1.213719e+00	1.213671e+00	1.213618e+00	1.213546e+00	1.213477e+00	1.213447e+00	1.213410e+00	1.213396e+00	1.213346e+00	1.213307e+00	1.213237e+00	1.213180e+00	1.213121e+00	1.213067e+00	1.212985e+00	1.212960e+00	1.212913e+00	1.212819e+00	1.212711e+00	1.212612e+00	1.212483e+00	1.212399e+00	1.212338e+00	1.212208e+00	1.212073e+00	1.211984e+00	1.211973e+00	1.211902e+00	1.211839e+00	1.211736e+00	1.211650e+00	1.211540e+00	1.211417e+00	1.211353e+00	1.211249e+00	1.211208e+00	1.211149e+00	1.211136e+00	1.211035e+00	1.210915e+00	1.210855e+00	1.210727e+00	1.210664e+00	1.210540e+00	1.210291e+00	1.210100e+00	1.210013e+00	1.209834e+00	1.209693e+00	1.209481e+00	1.209321e+00	1.209093e+00	1.208935e+00	1.208644e+00	1.208544e+00	1.208301e+00	1.208122e+00	1.208069e+00	1.207824e+00	1.207624e+00	1.207290e+00	1.206986e+00	1.206586e+00	1.206693e+00	1.206684e+00	1.206683e+00	1.206689e+00	1.205431e+00	1.204020e+00	1.204621e+00	1.207325e+00	1.209379e+00	1.210693e+00	1.209984e+00	1.207467e+00	1.216521e+00	1.231849e+00	1.248035e+00	1.257878e+00	1.259816e+00	1.261756e+00	1.260367e+00	1.248250e+00	1.236521e+00	1.225614e+00	1.220110e+00	1.215929e+00	1.214760e+00	1.213724e+00	1.213388e+00	1.212984e+00	1.212749e+00	1.212691e+00	1.212578e+00	1.212918e+00	1.212851e+00	1.212553e+00	1.212600e+00	1.212682e+00	1.213118e+00	1.213224e+00	1.213386e+00	1.213418e+00	1.213552e+00	1.213555e+00	1.213642e+00	1.213665e+00	1.213788e+00	1.213873e+00	1.214048e+00	1.214128e+00	1.214290e+00	1.214404e+00	1.214536e+00	1.214695e+00	1.214753e+00	1.214920e+00	1.214989e+00	1.215129e+00	1.215276e+00	1.215372e+00	1.215465e+00	1.215481e+00	1.215506e+00	1.215502e+00	1.215555e+00	1.215596e+00	1.215685e+00	1.215723e+00	1.215821e+00	1.215863e+00	1.215946e+00	1.216002e+00	1.216052e+00	1.216039e+00	1.216091e+00	1.216137e+00	1.216225e+00	1.216310e+00	1.216369e+00	1.216445e+00	1.216532e+00	1.216639e+00	1.216671e+00	1.216707e+00	1.216725e+00	1.216770e+00	1.216791e+00	1.216866e+00	1.216891e+00	1.216897e+00	1.216939e+00	1.216949e+00	1.216975e+00	1.216981e+00	1.217018e+00	1.217065e+00	1.217122e+00	1.217192e+00	1.217250e+00	1.217290e+00	1.217321e+00	1.217380e+00	1.217401e+00	1.217431e+00	1.217457e+00	1.217450e+00	1.217463e+00	1.217471e+00	1.217477e+00	1.217476e+00	1.217486e+00	1.217490e+00	1.217527e+00	1.217542e+00	1.217528e+00	1.217531e+00	1.217522e+00	1.217487e+00	1.217463e+00	1.217430e+00	1.217364e+00	1.217321e+00	1.217344e+00	1.217391e+00	1.217410e+00	1.217359e+00	1.217296e+00	1.217205e+00	1.217130e+00	1.217042e+00	1.216981e+00	1.216947e+00	1.216979e+00	1.217073e+00	1.217062e+00	1.217016e+00	1.216931e+00	1.216861e+00	1.216758e+00	1.216652e+00	1.216582e+00	1.216447e+00	1.216530e+00	1.216651e+00	1.216728e+00	1.216775e+00	1.216855e+00	1.216859e+00	1.216831e+00	1.216907e+00	1.217106e+00	1.216828e+00	1.216945e+00	1.216921e+00	1.217217e+00	1.217557e+00	1.218093e+00	1.218714e+00	1.219320e+00	1.219896e+00	1.220669e+00	1.221361e+00	1.221780e+00	1.221972e+00	1.222145e+00	1.222446e+00	1.222703e+00	1.222936e+00	1.223204e+00	1.223557e+00	1.223795e+00	1.224056e+00	1.224314e+00	1.224525e+00	1.224675e+00	1.224795e+00	1.224990e+00	1.225225e+00	1.225473e+00	1.225605e+00	1.225783e+00	1.225949e+00	1.226079e+00	1.226151e+00	1.226301e+00	1.226455e+00	1.226631e+00	1.226837e+00	1.227046e+00	1.227168e+00	1.227277e+00	1.227520e+00	1.227683e+00	1.227826e+00	1.227906e+00	1.228000e+00	1.228104e+00	1.228200e+00	1.228303e+00	1.228405e+00	1.228517e+00	1.228660e+00	1.228856e+00	1.229073e+00	1.229262e+00	1.229412e+00	1.229576e+00	1.229770e+00	1.229817e+00	1.229773e+00	1.230053e+00	1.230706e+00	1.230910e+00	1.230859e+00	1.230588e+00	1.229985e+00	1.229381e+00	1.229959e+00	1.230487e+00	1.230109e+00	1.230302e+00	1.233955e+00	1.133639e+00	1.224808e+00	1.224850e+00	1.224884e+00	1.224906e+00	1.224917e+00	1.224924e+00	1.224926e+00	1.224927e+00	1.224928e+00	1.224929e+00	1.224929e+00	1.224929e+00	1.224929e+00	1.224929e+00	1.224930e+00	1.224931e+00	1.224934e+00	1.224937e+00	1.224940e+00	1.224945e+00	1.224949e+00	1.224954e+00	1.224958e+00	1.224962e+00	1.224968e+00	1.224973e+00	1.224977e+00	1.224982e+00	1.224987e+00	1.224992e+00	1.224999e+00	1.225003e+00	1.225007e+00	1.225010e+00	1.225014e+00	1.225017e+00	1.225020e+00	1.225022e+00	1.225025e+00	1.225026e+00	1.225028e+00	1.225029e+00	1.225030e+00	1.225029e+00	1.225029e+00	1.225026e+00	1.225024e+00	1.225022e+00	1.225020e+00	1.225018e+00	1.225014e+00	1.225012e+00	1.225008e+00	1.225004e+00	1.224997e+00	1.224985e+00	1.224973e+00	1.224946e+00	1.224901e+00	1.224837e+00	1.225041e+00	1.224888e+00	1.225092e+00	1.224804e+00	1.225186e+00	1.224606e+00	1.225295e+00	1.224118e+00	1.225418e+00	1.223491e+00	1.224765e+00	1.225065e+00	1.225947e+00	1.223546e+00	1.224980e+00	1.225329e+00	1.225432e+00	1.224943e+00	1.223128e+00	1.224748e+00	1.224533e+00	1.225716e+00	1.225969e+00	1.222008e+00	1.221856e+00	1.224051e+00	1.224636e+00	1.224846e+00	1.223589e+00	1.224894e+00	1.227242e+00	1.220523e+00	1.220569e+00	1.222228e+00	1.219914e+00	1.221419e+00	1.224570e+00	1.225981e+00	1.226768e+00	1.223831e+00	1.222623e+00	1.223108e+00	1.224363e+00	1.227896e+00	1.229620e+00	1.225552e+00	1.220350e+00	1.222085e+00	1.221053e+00	1.223633e+00	1.224183e+00	1.221092e+00	1.218903e+00	1.219146e+00	1.222219e+00	1.225094e+00	1.218824e+00	1.218796e+00	1.227179e+00	1.225758e+00	1.218681e+00	1.218041e+00	1.221683e+00	1.221661e+00	1.225256e+00	1.223452e+00	1.227425e+00	1.225347e+00	1.219127e+00	1.223143e+00	1.221607e+00	1.221001e+00	1.220706e+00	1.222002e+00	1.223771e+00	1.225010e+00	1.217248e+00	1.217718e+00	1.218422e+00	1.218954e+00	1.225132e+00	1.225050e+00	1.217066e+00	1.224989e+00	1.225161e+00	1.224944e+00	1.224423e+00	1.220363e+00	1.220339e+00	1.217330e+00	1.217140e+00	1.226778e+00	1.227429e+00	1.227641e+00	1.219435e+00	1.220762e+00	1.223506e+00	1.216420e+00	1.217031e+00	1.216348e+00	1.224780e+00	1.224508e+00	1.224901e+00	1.216198e+00	1.215938e+00	1.224901e+00	1.217056e+00	1.224276e+00	1.233705e+00	1.230065e+00	1.225848e+00	1.225489e+00	1.225989e+00	1.228072e+00	1.220257e+00	1.219762e+00	1.216212e+00	1.217972e+00	1.225283e+00	1.225284e+00	1.225196e+00	1.225023e+00	1.217362e+00	1.226798e+00	1.219615e+00	1.220182e+00	1.216122e+00	1.216299e+00	1.219251e+00	1.224931e+00	1.219419e+00	1.221079e+00	1.225027e+00	1.224852e+00	1.224894e+00	1.222974e+00	1.231322e+00	1.219584e+00	1.224861e+00	1.225092e+00	1.215057e+00	1.221422e+00	1.225136e+00	1.214928e+00	1.222522e+00	1.218940e+00	1.225004e+00	1.217559e+00	1.220784e+00	1.224629e+00	1.225194e+00	1.219365e+00	1.228130e+00	1.219365e+00	1.224156e+00	1.224154e+00	1.215616e+00	1.227236e+00	1.224557e+00	1.219604e+00	1.219118e+00	1.218209e+00	1.216172e+00	1.225273e+00	1.215957e+00	1.226279e+00	1.216633e+00	1.216977e+00	1.224927e+00	1.224002e+00	1.225068e+00	1.225221e+00	1.225241e+00	1.235850e+00	1.218680e+00	1.221928e+00	1.217509e+00	1.221621e+00	1.218990e+00	1.219935e+00	1.223011e+00	1.223352e+00	1.225046e+00	1.224375e+00	1.216170e+00	1.225430e+00	1.224196e+00	1.225042e+00	1.224915e+00	1.224968e+00	1.224980e+00	1.224992e+00	1.224875e+00	1.224697e+00	1.225018e+00	1.225671e+00	1.215179e+00	1.225034e+00	1.222779e+00	1.215010e+00	1.228179e+00	1.225025e+00	1.218522e+00	1.218503e+00	1.216127e+00	1.214083e+00	1.215753e+00	1.218676e+00	1.222878e+00	1.215714e+00	1.214858e+00	1.225076e+00	1.225211e+00	1.222534e+00	1.218246e+00	1.218056e+00	1.225553e+00	1.223587e+00	1.225045e+00	1.227836e+00	1.213843e+00	1.224951e+00	1.223599e+00	1.224982e+00	1.224650e+00	1.225689e+00	1.218244e+00	1.219503e+00	1.220398e+00	1.226754e+00	1.220524e+00	1.223983e+00	1.222717e+00	1.225005e+00	1.225132e+00	1.225030e+00	1.224812e+00	1.225138e+00	1.219370e+00	1.224436e+00	1.225177e+00	1.213658e+00	1.213292e+00	1.225393e+00	1.215297e+00	1.220172e+00	1.224903e+00	1.221348e+00	1.222942e+00	1.224992e+00	1.225282e+00	1.225367e+00	1.224158e+00	1.223160e+00	1.217841e+00	1.217807e+00	1.225350e+00	1.222690e+00	1.220837e+00	1.227625e+00	1.213781e+00	1.219459e+00	1.218091e+00	1.224967e+00	1.218456e+00	1.218098e+00	1.224817e+00	1.214215e+00	1.231117e+00	1.240697e+00	1.225028e+00	1.222632e+00	1.224794e+00	1.225232e+00	1.217455e+00	1.225749e+00	1.225542e+00	1.225259e+00	1.226836e+00	1.218966e+00	1.215709e+00	1.216597e+00	1.216280e+00	1.223742e+00	1.216041e+00	1.225170e+00	1.215598e+00	1.224917e+00	1.218180e+00	1.224669e+00	1.224746e+00	1.228841e+00	1.225060e+00	1.214767e+00	1.225909e+00	1.227871e+00	1.218015e+00	1.218012e+00	1.224888e+00	1.218164e+00	1.219285e+00	1.214079e+00	1.217730e+00	1.226434e+00	1.226219e+00	1.226727e+00	1.221361e+00	1.216766e+00	1.216300e+00	1.221734e+00	1.223837e+00	1.216702e+00	1.224894e+00	1.223166e+00	1.225319e+00	1.217561e+00	1.215302e+00	1.226435e+00	1.225887e+00	1.217416e+00	1.220197e+00	1.220072e+00	1.218816e+00	1.219918e+00	1.224730e+00	1.222638e+00	1.225123e+00	1.224121e+00	1.212356e+00	1.213579e+00	1.225216e+00	1.225204e+00	1.223553e+00	1.227179e+00	1.220521e+00	1.224710e+00	1.225224e+00	1.225265e+00	1.221289e+00	1.224913e+00	1.220792e+00	1.224944e+00	1.218467e+00	1.218153e+00	1.223157e+00	1.222965e+00	1.218542e+00	1.225061e+00	1.224746e+00	1.221379e+00	1.225033e+00	1.224994e+00	1.212936e+00	1.219805e+00	1.226165e+00	1.223750e+00	1.224776e+00	1.226132e+00	1.220949e+00	1.224912e+00	1.222659e+00	1.215322e+00	1.224865e+00	1.225350e+00	1.224966e+00	1.223923e+00	1.224938e+00	1.224925e+00	1.225047e+00	1.224862e+00	1.217215e+00	1.225067e+00	1.218368e+00	1.215787e+00	1.225025e+00	1.225142e+00	1.214585e+00	1.212944e+00	1.226185e+00	1.224917e+00	1.224805e+00	1.225093e+00	1.228692e+00	1.221208e+00	1.220953e+00	1.221840e+00	1.222704e+00	1.224828e+00	1.218148e+00	1.221925e+00	1.215182e+00	1.218066e+00	1.215373e+00	1.225173e+00	1.216962e+00	1.221475e+00	1.225171e+00	1.218061e+00	1.218283e+00	1.217479e+00	1.224491e+00	1.214383e+00	1.225449e+00	1.225078e+00	1.224830e+00	1.218079e+00	1.227632e+00	1.222567e+00	1.216799e+00	1.213068e+00	1.224987e+00	1.218953e+00	1.224174e+00	1.224296e+00	1.221442e+00	1.210508e+00	1.217813e+00	1.225586e+00	1.217658e+00	1.213497e+00	1.225115e+00	1.219994e+00	1.218457e+00	1.225787e+00	1.218291e+00	1.225006e+00	1.225300e+00	1.221260e+00	1.218746e+00	1.226195e+00	1.225140e+00	1.226220e+00	1.215626e+00	1.215440e+00	1.225104e+00	1.215950e+00	1.216298e+00	1.219536e+00	1.224819e+00	1.214569e+00	1.224990e+00	1.221600e+00	1.212308e+00	1.222058e+00	1.217922e+00	1.217428e+00	1.220710e+00	1.225038e+00	1.214130e+00	1.219917e+00	1.225081e+00	1.216824e+00	1.226157e+00	1.225916e+00	1.225124e+00	1.225107e+00	1.217595e+00	1.223237e+00	1.229170e+00	1.218261e+00	1.227284e+00	1.216397e+00	1.244363e+00	1.216370e+00	1.225139e+00	1.223336e+00	1.213926e+00	1.226134e+00	1.224981e+00	1.222777e+00	1.217793e+00	1.224250e+00	1.225008e+00	1.224922e+00	1.217024e+00	1.224898e+00	1.225030e+00	1.227323e+00	1.234352e+00	1.224452e+00	1.226750e+00	1.223002e+00	1.219440e+00	1.222696e+00	1.224747e+00	1.225479e+00	1.212941e+00	1.217490e+00	1.228316e+00	1.217247e+00	1.225037e+00	1.220863e+00	1.228936e+00	1.224809e+00	1.223863e+00	1.216664e+00	1.217827e+00	1.224935e+00	1.219754e+00	1.224010e+00	1.225049e+00	1.215390e+00	1.224816e+00	1.220035e+00	1.224399e+00	1.222263e+00	1.225012e+00	1.222039e+00	1.222734e+00	1.217704e+00	1.223336e+00	1.222618e+00	1.218404e+00	1.225037e+00	1.224474e+00	1.223676e+00	1.219902e+00	1.222157e+00	1.224881e+00	1.225022e+00	1.216865e+00	1.212323e+00	1.211314e+00	1.225267e+00	1.226845e+00	1.217067e+00	1.224812e+00	1.220095e+00	1.217037e+00	1.217474e+00	1.225041e+00	1.223838e+00	1.216711e+00	1.225458e+00	1.221617e+00	1.224980e+00	1.224701e+00	1.221668e+00	1.223289e+00	1.224788e+00	1.219715e+00	1.224408e+00	1.225332e+00	1.221026e+00	1.221103e+00	1.220318e+00	1.219511e+00	1.226819e+00	1.225754e+00	1.225089e+00	1.216718e+00	1.223960e+00	1.227782e+00	1.226440e+00	1.224879e+00	1.224950e+00	1.224888e+00	1.221973e+00	1.225607e+00	1.224968e+00	1.225733e+00	1.224838e+00	1.217261e+00	1.225095e+00	1.217415e+00	1.229913e+00	1.219547e+00	1.225035e+00	1.225264e+00	1.224389e+00	1.223701e+00	1.218735e+00	1.224929e+00	1.227889e+00	1.224935e+00	1.225848e+00	1.225357e+00	1.225510e+00	1.223089e+00	1.224980e+00	1.225443e+00	1.225007e+00	1.217889e+00	1.217725e+00	1.223970e+00	1.211010e+00	1.222980e+00	1.216423e+00	1.216982e+00	1.225259e+00	1.224480e+00	1.225052e+00	1.224828e+00	1.225154e+00	1.224874e+00	1.224378e+00	1.219612e+00	1.221983e+00	1.224855e+00	1.216255e+00	1.219375e+00	1.222826e+00	1.223902e+00	1.225113e+00	1.225357e+00	1.218465e+00	1.215936e+00	1.226666e+00	1.221359e+00	1.224330e+00	1.225030e+00	1.217296e+00	1.224894e+00	1.218210e+00	1.224841e+00	1.224870e+00	1.216577e+00	1.222584e+00	1.218262e+00	1.211159e+00	1.226799e+00	1.225532e+00	1.225062e+00	1.225056e+00	1.220735e+00	1.224706e+00	1.224909e+00	1.223422e+00	1.222647e+00	1.215068e+00	1.224090e+00	1.225256e+00	1.225135e+00	1.212411e+00	1.224884e+00	1.221852e+00	1.217776e+00	1.219436e+00	1.224145e+00	1.218262e+00	1.219047e+00	1.224600e+00	1.227056e+00	1.224185e+00	1.214389e+00	1.216469e+00	1.225099e+00	1.217483e+00	1.222100e+00	1.224286e+00	1.226984e+00	1.225298e+00	1.214656e+00	1.217753e+00	1.227263e+00	1.220876e+00	1.225148e+00	1.224613e+00	1.213480e+00	1.223268e+00	1.221149e+00	1.227984e+00	1.225029e+00	1.222259e+00	1.217618e+00	1.220175e+00	1.216457e+00	1.225594e+00	1.220186e+00	1.224385e+00	1.224869e+00	1.220930e+00	1.221490e+00	1.223834e+00	1.223193e+00	1.224955e+00	1.225670e+00	1.226694e+00	1.217683e+00	1.226129e+00	1.222638e+00	1.215995e+00	1.224106e+00	1.216117e+00	1.223168e+00	1.216312e+00	1.221638e+00	1.215274e+00	1.213976e+00	1.224646e+00	1.224609e+00	1.220094e+00	1.210628e+00	1.219855e+00	1.225026e+00	1.225056e+00	1.221915e+00	1.216180e+00	1.216124e+00	1.214847e+00	1.224675e+00	1.218191e+00	1.225006e+00	1.223324e+00	1.225030e+00	1.220827e+00	1.225635e+00	1.225753e+00	1.226074e+00	1.219533e+00	1.223414e+00	1.222558e+00	1.222129e+00	1.220263e+00	1.225161e+00	1.224988e+00	1.224618e+00	1.224987e+00	1.225069e+00	1.227467e+00	1.224867e+00	1.224936e+00	1.225447e+00	1.228032e+00	1.214275e+00	1.226872e+00	1.217545e+00	1.214325e+00	1.224711e+00	1.216865e+00	1.217049e+00	1.225245e+00	1.223139e+00	1.218214e+00	1.211844e+00	1.225135e+00	1.217531e+00	1.215480e+00	1.225405e+00	1.215600e+00	1.220608e+00	1.228686e+00	1.225496e+00	1.217519e+00	1.225015e+00	1.225118e+00	1.223361e+00	1.218786e+00	1.217515e+00	1.219654e+00	1.224673e+00	1.224807e+00	1.225081e+00	1.212077e+00	1.219633e+00	1.215234e+00	1.225029e+00	1.229159e+00	1.224651e+00	1.217811e+00	1.215535e+00	1.226521e+00	1.220925e+00	1.222296e+00	1.224894e+00	1.225552e+00	1.224957e+00	1.225021e+00	1.220840e+00	1.224915e+00	1.224589e+00	1.211527e+00	1.221148e+00	1.220034e+00	1.223449e+00	1.224930e+00	1.216494e+00	1.218773e+00	1.218043e+00	1.216287e+00	1.217203e+00	1.221736e+00	1.224896e+00	1.225338e+00	1.227538e+00	1.225057e+00	1.225308e+00	1.225381e+00	1.220943e+00	1.224904e+00	1.219134e+00	1.216500e+00	1.220391e+00	1.222015e+00	1.225227e+00	1.223295e+00	1.224128e+00	1.225051e+00	1.212953e+00	1.224913e+00	1.214861e+00	1.224355e+00	1.213323e+00	1.218935e+00	1.224844e+00	1.225303e+00	1.225006e+00	1.224968e+00	1.224922e+00	1.222025e+00	1.225027e+00	1.225065e+00	1.215317e+00	1.223552e+00	1.215236e+00	1.217174e+00	1.227514e+00	1.225972e+00	1.216538e+00	1.223999e+00	1.219951e+00	1.216191e+00	1.224923e+00	1.215724e+00	1.215074e+00	1.218313e+00	1.218329e+00	1.225365e+00	1.225138e+00	1.216558e+00	1.225257e+00	1.225000e+00	1.215317e+00	1.225253e+00	1.225016e+00	1.227352e+00	1.217673e+00	1.216996e+00	1.220360e+00	1.220795e+00	1.219466e+00	1.224913e+00	1.222783e+00	1.218116e+00	1.215999e+00	1.226624e+00	1.227973e+00	1.224449e+00	1.224914e+00	1.224600e+00	1.217202e+00	1.222491e+00	1.225015e+00	1.225051e+00	1.219292e+00	1.217263e+00	1.214968e+00	1.228311e+00	1.227450e+00	1.215037e+00	1.224888e+00	1.227954e+00	1.222821e+00	1.224395e+00	1.214820e+00	1.223517e+00	1.225292e+00	1.218582e+00	1.220352e+00	1.225226e+00	1.218062e+00	1.216311e+00	1.220510e+00	1.222005e+00	1.227784e+00	1.217326e+00	1.223108e+00	1.223258e+00	1.227161e+00	1.219084e+00	1.219834e+00	1.224829e+00	1.212706e+00	1.225039e+00	1.215395e+00	1.225080e+00	1.221286e+00	1.225047e+00	1.226466e+00	1.239744e+00	1.224885e+00	1.229458e+00	1.216903e+00	1.219618e+00	1.217733e+00	1.217680e+00	1.214205e+00	1.220969e+00	1.226335e+00	1.223521e+00	1.219113e+00	1.222328e+00	1.223162e+00	1.226891e+00	1.223987e+00	1.225389e+00	1.218673e+00	1.224536e+00	1.222412e+00	1.221845e+00	1.216517e+00	1.224551e+00	1.221362e+00	1.216720e+00	1.216895e+00	1.223828e+00	1.225056e+00	1.216173e+00	1.218979e+00	1.223185e+00	1.225295e+00	1.221171e+00	1.218839e+00	1.218643e+00	1.222002e+00	1.224541e+00	1.224922e+00	1.225075e+00	1.213559e+00	1.214802e+00	1.210228e+00	1.224504e+00	1.217922e+00	1.222818e+00	1.211824e+00	1.212096e+00	1.229182e+00	1.223837e+00	1.225781e+00	1.222526e+00	1.217686e+00	1.223957e+00	1.217328e+00	1.222699e+00	1.217471e+00	1.219039e+00	1.225275e+00	1.216239e+00	1.216281e+00	1.216871e+00	1.215877e+00	1.223439e+00	1.223922e+00	1.216487e+00	1.216785e+00	1.224994e+00	1.218975e+00	1.225104e+00	1.224977e+00	1.224140e+00	1.216043e+00	1.225127e+00	1.216653e+00	1.224305e+00	1.224797e+00	1.223862e+00	1.222551e+00	1.215316e+00	1.225641e+00	1.220107e+00	1.226352e+00	1.224905e+00	1.225941e+00	1.224975e+00	1.217736e+00	1.220227e+00	1.226756e+00	1.229288e+00	1.223607e+00	1.221784e+00	1.216326e+00	1.225007e+00	1.223194e+00	1.228153e+00	1.220112e+00	1.217562e+00	1.220811e+00	1.225095e+00	1.211352e+00	1.215536e+00	1.223411e+00	1.225063e+00	1.224921e+00	1.223846e+00	1.224999e+00	1.209208e+00	1.227028e+00	1.216389e+00	1.217226e+00	1.221432e+00	1.224798e+00	1.224159e+00	1.225194e+00	1.216247e+00	1.214994e+00	1.215399e+00	1.224894e+00	1.219663e+00	1.224955e+00	1.218128e+00	1.224929e+00	1.220190e+00	1.220645e+00	1.204211e+00	1.224768e+00	1.215026e+00	1.214828e+00	1.222458e+00	1.214737e+00	1.225035e+00	1.220660e+00	1.232087e+00	1.225171e+00	1.224648e+00	1.210008e+00	1.225114e+00	1.225463e+00	1.220474e+00	1.224732e+00	1.223705e+00	1.218285e+00	1.219787e+00	1.219102e+00	1.225017e+00	1.223274e+00	1.227473e+00	1.226162e+00	1.225517e+00	1.226188e+00	1.217561e+00	1.217600e+00	1.226553e+00	1.225548e+00	1.219117e+00	1.224973e+00	1.230116e+00	1.222807e+00	1.225237e+00	1.219811e+00	1.225324e+00	1.225048e+00	1.227156e+00	1.225260e+00	1.224348e+00	1.219517e+00	1.220330e+00	1.225025e+00	1.225029e+00	1.216191e+00	1.217018e+00	1.209006