# vtk DataFile Version 3.0
vtk output
ASCII
DATASET UNSTRUCTURED_GRID
POINTS 409 double
1.000000e+00	-2.000000e-04	0.0	1.000000e+00	-1.000000e-02	0.0	9.950827e-01	6.845698e-04	0.0	9.901756e-01	1.623945e-03	0.0	9.852661e-01	2.550967e-03	0.0	9.803543e-01	3.465804e-03	0.0	9.754388e-01	4.360156e-03	0.0	9.705158e-01	5.212720e-03	0.0	9.655892e-01	6.044226e-03	0.0	9.606617e-01	6.870151e-03	0.0	9.557326e-01	7.686670e-03	0.0	9.508016e-01	8.491205e-03	0.0	9.458683e-01	9.281614e-03	0.0	9.409324e-01	1.005581e-02	0.0	9.359948e-01	1.081901e-02	0.0	9.310570e-01	1.158159e-02	0.0	9.261185e-01	1.233861e-02	0.0	9.211784e-01	1.308574e-02	0.0	9.162363e-01	1.381944e-02	0.0	9.112918e-01	1.453680e-02	0.0	9.063447e-01	1.523538e-02	0.0	9.013946e-01	1.591313e-02	0.0	8.964418e-01	1.657035e-02	0.0	8.914870e-01	1.721302e-02	0.0	8.865307e-01	1.784348e-02	0.0	8.815731e-01	1.846319e-02	0.0	8.766142e-01	1.907318e-02	0.0	8.716542e-01	1.967419e-02	0.0	8.666932e-01	2.026672e-02	0.0	8.617313e-01	2.085107e-02	0.0	8.567684e-01	2.142735e-02	0.0	8.518045e-01	2.199553e-02	0.0	8.468397e-01	2.255531e-02	0.0	8.418740e-01	2.310636e-02	0.0	8.369072e-01	2.364863e-02	0.0	8.319395e-01	2.418212e-02	0.0	8.269709e-01	2.470683e-02	0.0	8.220014e-01	2.522274e-02	0.0	8.170309e-01	2.572985e-02	0.0	8.120596e-01	2.622816e-02	0.0	8.070874e-01	2.671766e-02	0.0	8.021143e-01	2.719834e-02	0.0	7.971404e-01	2.766989e-02	0.0	7.921654e-01	2.813116e-02	0.0	7.871896e-01	2.858256e-02	0.0	7.822130e-01	2.902467e-02	0.0	7.772356e-01	2.945805e-02	0.0	7.722574e-01	2.988330e-02	0.0	7.672787e-01	3.030100e-02	0.0	7.622993e-01	3.071174e-02	0.0	7.573195e-01	3.111609e-02	0.0	7.523392e-01	3.151465e-02	0.0	7.473584e-01	3.190745e-02	0.0	7.423769e-01	3.229212e-02	0.0	7.373949e-01	3.266880e-02	0.0	7.324123e-01	3.303810e-02	0.0	7.274292e-01	3.340059e-02	0.0	7.224457e-01	3.375686e-02	0.0	7.174618e-01	3.410751e-02	0.0	7.124775e-01	3.445311e-02	0.0	7.074929e-01	3.479427e-02	0.0	7.025081e-01	3.513157e-02	0.0	6.975230e-01	3.546546e-02	0.0	6.925376e-01	3.579536e-02	0.0	6.875520e-01	3.612085e-02	0.0	6.825661e-01	3.644164e-02	0.0	6.775798e-01	3.675743e-02	0.0	6.725932e-01	3.706793e-02	0.0	6.676063e-01	3.737283e-02	0.0	6.626190e-01	3.767185e-02	0.0	6.576313e-01	3.796467e-02	0.0	6.526433e-01	3.825101e-02	0.0	6.476548e-01	3.853056e-02	0.0	6.426660e-01	3.880333e-02	0.0	6.376769e-01	3.906958e-02	0.0	6.326874e-01	3.932962e-02	0.0	6.276976e-01	3.958373e-02	0.0	6.227076e-01	3.983223e-02	0.0	6.177172e-01	4.007539e-02	0.0	6.127267e-01	4.031352e-02	0.0	6.077359e-01	4.054691e-02	0.0	6.027449e-01	4.077587e-02	0.0	5.977537e-01	4.100096e-02	0.0	5.927624e-01	4.122404e-02	0.0	5.877710e-01	4.144439e-02	0.0	5.827795e-01	4.166082e-02	0.0	5.777877e-01	4.187215e-02	0.0	5.727957e-01	4.207718e-02	0.0	5.678033e-01	4.227472e-02	0.0	5.628106e-01	4.246357e-02	0.0	5.578176e-01	4.264253e-02	0.0	5.528242e-01	4.281041e-02	0.0	5.478303e-01	4.296515e-02	0.0	5.428359e-01	4.310054e-02	0.0	5.378411e-01	4.321899e-02	0.0	5.328459e-01	4.332468e-02	0.0	5.278506e-01	4.342181e-02	0.0	5.228552e-01	4.351455e-02	0.0	5.178598e-01	4.360709e-02	0.0	5.128645e-01	4.370362e-02	0.0	5.078694e-01	4.380833e-02	0.0	5.028745e-01	4.392540e-02	0.0	4.978800e-01	4.405898e-02	0.0	4.928861e-01	4.421016e-02	0.0	4.878925e-01	4.437489e-02	0.0	4.828993e-01	4.454869e-02	0.0	4.779062e-01	4.472708e-02	0.0	4.729132e-01	4.490558e-02	0.0	4.679200e-01	4.507973e-02	0.0	4.629264e-01	4.524503e-02	0.0	4.579325e-01	4.539702e-02	0.0	4.529381e-01	4.553120e-02	0.0	4.479431e-01	4.564384e-02	0.0	4.429478e-01	4.573922e-02	0.0	4.379522e-01	4.582060e-02	0.0	4.329564e-01	4.589006e-02	0.0	4.279605e-01	4.594969e-02	0.0	4.229645e-01	4.600160e-02	0.0	4.179685e-01	4.604787e-02	0.0	4.129724e-01	4.609060e-02	0.0	4.079763e-01	4.613188e-02	0.0	4.029803e-01	4.617381e-02	0.0	3.979842e-01	4.621805e-02	0.0	3.929882e-01	4.626185e-02	0.0	3.879921e-01	4.630380e-02	0.0	3.829960e-01	4.634332e-02	0.0	3.779999e-01	4.637980e-02	0.0	3.730037e-01	4.641265e-02	0.0	3.680076e-01	4.644127e-02	0.0	3.630114e-01	4.646505e-02	0.0	3.580151e-01	4.648340e-02	0.0	3.530189e-01	4.649573e-02	0.0	3.480227e-01	4.650159e-02	0.0	3.430264e-01	4.650211e-02	0.0	3.380302e-01	4.649764e-02	0.0	3.330339e-01	4.648818e-02	0.0	3.280377e-01	4.647373e-02	0.0	3.230415e-01	4.645428e-02	0.0	3.180453e-01	4.642984e-02	0.0	3.130491e-01	4.640041e-02	0.0	3.080530e-01	4.636599e-02	0.0	3.030569e-01	4.632658e-02	0.0	2.980608e-01	4.628239e-02	0.0	2.930648e-01	4.623526e-02	0.0	2.880688e-01	4.618489e-02	0.0	2.830729e-01	4.613037e-02	0.0	2.780770e-01	4.607082e-02	0.0	2.730812e-01	4.600534e-02	0.0	2.680854e-01	4.593302e-02	0.0	2.630898e-01	4.585297e-02	0.0	2.580944e-01	4.576430e-02	0.0	2.530991e-01	4.566610e-02	0.0	2.481040e-01	4.555785e-02	0.0	2.431091e-01	4.544244e-02	0.0	2.381143e-01	4.532022e-02	0.0	2.331198e-01	4.519059e-02	0.0	2.281254e-01	4.505297e-02	0.0	2.231313e-01	4.490674e-02	0.0	2.181375e-01	4.475132e-02	0.0	2.131439e-01	4.458611e-02	0.0	2.081508e-01	4.441052e-02	0.0	2.031580e-01	4.422395e-02	0.0	1.981657e-01	4.402590e-02	0.0	1.931738e-01	4.381706e-02	0.0	1.881824e-01	4.359826e-02	0.0	1.831913e-01	4.336993e-02	0.0	1.782007e-01	4.313227e-02	0.0	1.732106e-01	4.288527e-02	0.0	1.682209e-01	4.262873e-02	0.0	1.632318e-01	4.236220e-02	0.0	1.582432e-01	4.208495e-02	0.0	1.532554e-01	4.179586e-02	0.0	1.482683e-01	4.149348e-02	0.0	1.432820e-01	4.117838e-02	0.0	1.382966e-01	4.084913e-02	0.0	1.333123e-01	4.050341e-02	0.0	1.283294e-01	4.013883e-02	0.0	1.233480e-01	3.975309e-02	0.0	1.183686e-01	3.934414e-02	0.0	1.133912e-01	3.891040e-02	0.0	1.084161e-01	3.845058e-02	0.0	1.034439e-01	3.796137e-02	0.0	9.847462e-02	3.744312e-02	0.0	9.350834e-02	3.689677e-02	0.0	8.854521e-02	3.632247e-02	0.0	8.358548e-02	3.571949e-02	0.0	7.862958e-02	3.508591e-02	0.0	7.367829e-02	3.441721e-02	0.0	6.873463e-02	3.369443e-02	0.0	6.380040e-02	3.290983e-02	0.0	5.887631e-02	3.206396e-02	0.0	5.396220e-02	3.116184e-02	0.0	4.905632e-02	3.021592e-02	0.0	4.415476e-02	2.924792e-02	0.0	3.927503e-02	2.817640e-02	0.0	3.444787e-02	2.688958e-02	0.0	2.968645e-02	2.537724e-02	0.0	2.498142e-02	2.369681e-02	0.0	2.031304e-02	2.191690e-02	0.0	1.567738e-02	2.005346e-02	0.0	1.110239e-02	1.804753e-02	0.0	7.113798e-03	1.509349e-02	0.0	3.719650e-03	1.145621e-02	0.0	1.325794e-03	7.081222e-03	0.0	1.405336e-04	2.238434e-03	0.0	2.132047e-04	-2.740549e-03	0.0	1.521617e-03	-7.549236e-03	0.0	4.014175e-03	-1.186932e-02	0.0	7.513512e-03	-1.540602e-02	0.0	1.164430e-02	-1.821070e-02	0.0	1.606117e-02	-2.054277e-02	0.0	2.067540e-02	-2.245502e-02	0.0	2.538188e-02	-2.413104e-02	0.0	3.014686e-02	-2.563251e-02	0.0	3.496288e-02	-2.696172e-02	0.0	3.980689e-02	-2.818528e-02	0.0	4.467664e-02	-2.930199e-02	0.0	4.956894e-02	-3.031545e-02	0.0	5.447537e-02	-3.125848e-02	0.0	5.939048e-02	-3.215513e-02	0.0	6.431565e-02	-3.299474e-02	0.0	6.925090e-02	-3.377285e-02	0.0	7.419549e-02	-3.448925e-02	0.0	7.914736e-02	-3.515365e-02	0.0	8.410369e-02	-3.578390e-02	0.0	8.906378e-02	-3.638381e-02	0.0	9.402725e-02	-3.695517e-02	0.0	9.899385e-02	-3.749861e-02	0.0	1.039635e-01	-3.801389e-02	0.0	1.089360e-01	-3.849997e-02	0.0	1.139113e-01	-3.895693e-02	0.0	1.188889e-01	-3.938802e-02	0.0	1.238686e-01	-3.979446e-02	0.0	1.288501e-01	-4.017789e-02	0.0	1.338332e-01	-4.054039e-02	0.0	1.388176e-01	-4.088428e-02	0.0	1.438031e-01	-4.121193e-02	0.0	1.487895e-01	-4.152569e-02	0.0	1.537766e-01	-4.182667e-02	0.0	1.587646e-01	-4.211446e-02	0.0	1.637532e-01	-4.239054e-02	0.0	1.687424e-01	-4.265600e-02	0.0	1.737321e-01	-4.291153e-02	0.0	1.787223e-01	-4.315754e-02	0.0	1.837129e-01	-4.339423e-02	0.0	1.887040e-01	-4.362158e-02	0.0	1.936955e-01	-4.383936e-02	0.0	1.986875e-01	-4.404712e-02	0.0	2.036798e-01	-4.424398e-02	0.0	2.086726e-01	-4.442938e-02	0.0	2.136658e-01	-4.460385e-02	0.0	2.186594e-01	-4.476801e-02	0.0	2.236532e-01	-4.492244e-02	0.0	2.286474e-01	-4.506774e-02	0.0	2.336418e-01	-4.520451e-02	0.0	2.386364e-01	-4.533333e-02	0.0	2.436311e-01	-4.545481e-02	0.0	2.486261e-01	-4.556954e-02	0.0	2.536212e-01	-4.567684e-02	0.0	2.586165e-01	-4.577400e-02	0.0	2.636119e-01	-4.586173e-02	0.0	2.686076e-01	-4.594092e-02	0.0	2.736033e-01	-4.601249e-02	0.0	2.785991e-01	-4.607731e-02	0.0	2.835950e-01	-4.613629e-02	0.0	2.885910e-01	-4.619033e-02	0.0	2.935870e-01	-4.624032e-02	0.0	2.985830e-01	-4.628716e-02	0.0	3.035791e-01	-4.633093e-02	0.0	3.085752e-01	-4.636982e-02	0.0	3.135713e-01	-4.640372e-02	0.0	3.185675e-01	-4.643263e-02	0.0	3.235637e-01	-4.645655e-02	0.0	3.285599e-01	-4.647547e-02	0.0	3.335561e-01	-4.648940e-02	0.0	3.385524e-01	-4.649834e-02	0.0	3.435486e-01	-4.650229e-02	0.0	3.485449e-01	-4.650124e-02	0.0	3.535411e-01	-4.649497e-02	0.0	3.585373e-01	-4.648297e-02	0.0	3.635336e-01	-4.646548e-02	0.0	3.685298e-01	-4.644281e-02	0.0	3.735259e-01	-4.641527e-02	0.0	3.785221e-01	-4.638314e-02	0.0	3.835182e-01	-4.634673e-02	0.0	3.885143e-01	-4.630634e-02	0.0	3.935103e-01	-4.626226e-02	0.0	3.985064e-01	-4.621480e-02	0.0	4.035024e-01	-4.616422e-02	0.0	4.084983e-01	-4.611044e-02	0.0	4.134942e-01	-4.605315e-02	0.0	4.184901e-01	-4.599206e-02	0.0	4.234859e-01	-4.592686e-02	0.0	4.284817e-01	-4.585727e-02	0.0	4.334774e-01	-4.578297e-02	0.0	4.384730e-01	-4.570368e-02	0.0	4.434686e-01	-4.561909e-02	0.0	4.484640e-01	-4.552890e-02	0.0	4.534593e-01	-4.543374e-02	0.0	4.584546e-01	-4.533578e-02	0.0	4.634499e-01	-4.523430e-02	0.0	4.684450e-01	-4.512841e-02	0.0	4.734400e-01	-4.501721e-02	0.0	4.784349e-01	-4.489981e-02	0.0	4.834296e-01	-4.477531e-02	0.0	4.884241e-01	-4.464281e-02	0.0	4.934183e-01	-4.450143e-02	0.0	4.984123e-01	-4.435026e-02	0.0	5.034060e-01	-4.419045e-02	0.0	5.083995e-01	-4.402697e-02	0.0	5.133929e-01	-4.385849e-02	0.0	5.183861e-01	-4.368321e-02	0.0	5.233790e-01	-4.349934e-02	0.0	5.283715e-01	-4.330511e-02	0.0	5.333634e-01	-4.309872e-02	0.0	5.383548e-01	-4.287839e-02	0.0	5.433455e-01	-4.264234e-02	0.0	5.483353e-01	-4.238880e-02	0.0	5.533243e-01	-4.211946e-02	0.0	5.583129e-01	-4.184328e-02	0.0	5.633010e-01	-4.155818e-02	0.0	5.682884e-01	-4.126120e-02	0.0	5.732749e-01	-4.094938e-02	0.0	5.782603e-01	-4.061977e-02	0.0	5.832442e-01	-4.026943e-02	0.0	5.882265e-01	-3.989543e-02	0.0	5.932066e-01	-3.949486e-02	0.0	5.981843e-01	-3.906482e-02	0.0	6.031594e-01	-3.860566e-02	0.0	6.081327e-01	-3.812669e-02	0.0	6.131039e-01	-3.762723e-02	0.0	6.180728e-01	-3.710555e-02	0.0	6.230392e-01	-3.655995e-02	0.0	6.280027e-01	-3.598876e-02	0.0	6.329630e-01	-3.539029e-02	0.0	6.379196e-01	-3.476289e-02	0.0	6.428724e-01	-3.410492e-02	0.0	6.478207e-01	-3.341478e-02	0.0	6.527636e-01	-3.268645e-02	0.0	6.576979e-01	-3.190245e-02	0.0	6.626244e-01	-3.107067e-02	0.0	6.675446e-01	-3.020196e-02	0.0	6.724600e-01	-2.930700e-02	0.0	6.773726e-01	-2.839636e-02	0.0	6.822841e-01	-2.748049e-02	0.0	6.871967e-01	-2.656986e-02	0.0	6.921122e-01	-2.567494e-02	0.0	6.970323e-01	-2.480628e-02	0.0	7.019582e-01	-2.397104e-02	0.0	7.068856e-01	-2.314426e-02	0.0	7.118135e-01	-2.232061e-02	0.0	7.167423e-01	-2.150231e-02	0.0	7.216723e-01	-2.069162e-02	0.0	7.266040e-01	-1.989079e-02	0.0	7.315376e-01	-1.910207e-02	0.0	7.364734e-01	-1.832773e-02	0.0	7.414119e-01	-1.757006e-02	0.0	7.463532e-01	-1.683136e-02	0.0	7.512977e-01	-1.611364e-02	0.0	7.562445e-01	-1.541259e-02	0.0	7.611934e-01	-1.472630e-02	0.0	7.661443e-01	-1.405509e-02	0.0	7.710974e-01	-1.339927e-02	0.0	7.760524e-01	-1.275914e-02	0.0	7.810095e-01	-1.213503e-02	0.0	7.859687e-01	-1.152725e-02	0.0	7.909298e-01	-1.093611e-02	0.0	7.958930e-01	-1.036192e-02	0.0	8.008581e-01	-9.804915e-03	0.0	8.058247e-01	-9.261398e-03	0.0	8.107927e-01	-8.730657e-03	0.0	8.157622e-01	-8.214455e-03	0.0	8.207334e-01	-7.714560e-03	0.0	8.257063e-01	-7.232747e-03	0.0	8.306812e-01	-6.770799e-03	0.0	8.356580e-01	-6.330506e-03	0.0	8.406368e-01	-5.913666e-03	0.0	8.456177e-01	-5.522082e-03	0.0	8.506006e-01	-5.157538e-03	0.0	8.555853e-01	-4.818656e-03	0.0	8.605716e-01	-4.502771e-03	0.0	8.655592e-01	-4.208865e-03	0.0	8.705480e-01	-3.936431e-03	0.0	8.755379e-01	-3.685437e-03	0.0	8.805289e-01	-3.456324e-03	0.0	8.855209e-01	-3.250062e-03	0.0	8.905139e-01	-3.068257e-03	0.0	8.955077e-01	-2.913358e-03	0.0	9.005024e-01	-2.789034e-03	0.0	9.054979e-01	-2.701638e-03	0.0	9.104939e-01	-2.653873e-03	0.0	9.154901e-01	-2.646166e-03	0.0	9.204862e-01	-2.678908e-03	0.0	9.254819e-01	-2.752441e-03	0.0	9.304769e-01	-2.867042e-03	0.0	9.354707e-01	-3.022887e-03	0.0	9.404630e-01	-3.220309e-03	0.0	9.454516e-01	-3.495067e-03	0.0	9.504344e-01	-3.860300e-03	0.0	9.554113e-01	-4.299193e-03	0.0	9.603831e-01	-4.793072e-03	0.0	9.653517e-01	-5.317454e-03	0.0	9.703214e-01	-5.831926e-03	0.0	9.752888e-01	-6.367216e-03	0.0	9.802451e-01	-6.997291e-03	0.0	9.851951e-01	-7.675801e-03	0.0	9.901437e-01	-8.363983e-03	0.0	9.950834e-01	-9.113098e-03	0.0	1.000000e+00	-5.100000e-03	0.0	
CELLS 409	1227
2	1	408	2	408	0	2	0	2	2	2	3	2	3	4	2	4	5	2	5	6	2	6	7	2	7	8	2	8	9	2	9	10	2	10	11	2	11	12	2	12	13	2	13	14	2	14	15	2	15	16	2	16	17	2	17	18	2	18	19	2	19	20	2	20	21	2	21	22	2	22	23	2	23	24	2	24	25	2	25	26	2	26	27	2	27	28	2	28	29	2	29	30	2	30	31	2	31	32	2	32	33	2	33	34	2	34	35	2	35	36	2	36	37	2	37	38	2	38	39	2	39	40	2	40	41	2	41	42	2	42	43	2	43	44	2	44	45	2	45	46	2	46	47	2	47	48	2	48	49	2	49	50	2	50	51	2	51	52	2	52	53	2	53	54	2	54	55	2	55	56	2	56	57	2	57	58	2	58	59	2	59	60	2	60	61	2	61	62	2	62	63	2	63	64	2	64	65	2	65	66	2	66	67	2	67	68	2	68	69	2	69	70	2	70	71	2	71	72	2	72	73	2	73	74	2	74	75	2	75	76	2	76	77	2	77	78	2	78	79	2	79	80	2	80	81	2	81	82	2	82	83	2	83	84	2	84	85	2	85	86	2	86	87	2	87	88	2	88	89	2	89	90	2	90	91	2	91	92	2	92	93	2	93	94	2	94	95	2	95	96	2	96	97	2	97	98	2	98	99	2	99	100	2	100	101	2	101	102	2	102	103	2	103	104	2	104	105	2	105	106	2	106	107	2	107	108	2	108	109	2	109	110	2	110	111	2	111	112	2	112	113	2	113	114	2	114	115	2	115	116	2	116	117	2	117	118	2	118	119	2	119	120	2	120	121	2	121	122	2	122	123	2	123	124	2	124	125	2	125	126	2	126	127	2	127	128	2	128	129	2	129	130	2	130	131	2	131	132	2	132	133	2	133	134	2	134	135	2	135	136	2	136	137	2	137	138	2	138	139	2	139	140	2	140	141	2	141	142	2	142	143	2	143	144	2	144	145	2	145	146	2	146	147	2	147	148	2	148	149	2	149	150	2	150	151	2	151	152	2	152	153	2	153	154	2	154	155	2	155	156	2	156	157	2	157	158	2	158	159	2	159	160	2	160	161	2	161	162	2	162	163	2	163	164	2	164	165	2	165	166	2	166	167	2	167	168	2	168	169	2	169	170	2	170	171	2	171	172	2	172	173	2	173	174	2	174	175	2	175	176	2	176	177	2	177	178	2	178	179	2	179	180	2	180	181	2	181	182	2	182	183	2	183	184	2	184	185	2	185	186	2	186	187	2	187	188	2	188	189	2	189	190	2	190	191	2	191	192	2	192	193	2	193	194	2	194	195	2	195	196	2	196	197	2	197	198	2	198	199	2	199	200	2	200	201	2	201	202	2	202	203	2	203	204	2	204	205	2	205	206	2	206	207	2	207	208	2	208	209	2	209	210	2	210	211	2	211	212	2	212	213	2	213	214	2	214	215	2	215	216	2	216	217	2	217	218	2	218	219	2	219	220	2	220	221	2	221	222	2	222	223	2	223	224	2	224	225	2	225	226	2	226	227	2	227	228	2	228	229	2	229	230	2	230	231	2	231	232	2	232	233	2	233	234	2	234	235	2	235	236	2	236	237	2	237	238	2	238	239	2	239	240	2	240	241	2	241	242	2	242	243	2	243	244	2	244	245	2	245	246	2	246	247	2	247	248	2	248	249	2	249	250	2	250	251	2	251	252	2	252	253	2	253	254	2	254	255	2	255	256	2	256	257	2	257	258	2	258	259	2	259	260	2	260	261	2	261	262	2	262	263	2	263	264	2	264	265	2	265	266	2	266	267	2	267	268	2	268	269	2	269	270	2	270	271	2	271	272	2	272	273	2	273	274	2	274	275	2	275	276	2	276	277	2	277	278	2	278	279	2	279	280	2	280	281	2	281	282	2	282	283	2	283	284	2	284	285	2	285	286	2	286	287	2	287	288	2	288	289	2	289	290	2	290	291	2	291	292	2	292	293	2	293	294	2	294	295	2	295	296	2	296	297	2	297	298	2	298	299	2	299	300	2	300	301	2	301	302	2	302	303	2	303	304	2	304	305	2	305	306	2	306	307	2	307	308	2	308	309	2	309	310	2	310	311	2	311	312	2	312	313	2	313	314	2	314	315	2	315	316	2	316	317	2	317	318	2	318	319	2	319	320	2	320	321	2	321	322	2	322	323	2	323	324	2	324	325	2	325	326	2	326	327	2	327	328	2	328	329	2	329	330	2	330	331	2	331	332	2	332	333	2	333	334	2	334	335	2	335	336	2	336	337	2	337	338	2	338	339	2	339	340	2	340	341	2	341	342	2	342	343	2	343	344	2	344	345	2	345	346	2	346	347	2	347	348	2	348	349	2	349	350	2	350	351	2	351	352	2	352	353	2	353	354	2	354	355	2	355	356	2	356	357	2	357	358	2	358	359	2	359	360	2	360	361	2	361	362	2	362	363	2	363	364	2	364	365	2	365	366	2	366	367	2	367	368	2	368	369	2	369	370	2	370	371	2	371	372	2	372	373	2	373	374	2	374	375	2	375	376	2	376	377	2	377	378	2	378	379	2	379	380	2	380	381	2	381	382	2	382	383	2	383	384	2	384	385	2	385	386	2	386	387	2	387	388	2	388	389	2	389	390	2	390	391	2	391	392	2	392	393	2	393	394	2	394	395	2	395	396	2	396	397	2	397	398	2	398	399	2	399	400	2	400	401	2	401	402	2	402	403	2	403	404	2	404	405	2	405	406	2	406	407	2	407	1	
CELL_TYPES 409
3	3	3	3	3	3	3	3	3	3	3	3	3	3	3	3	3	3	3	3	3	3	3	3	3	3	3	3	3	3	3	3	3	3	3	3	3	3	3	3	3	3	3	3	3	3	3	3	3	3	3	3	3	3	3	3	3	3	3	3	3	3	3	3	3	3	3	3	3	3	3	3	3	3	3	3	3	3	3	3	3	3	3	3	3	3	3	3	3	3	3	3	3	3	3	3	3	3	3	3	3	3	3	3	3	3	3	3	3	3	3	3	3	3	3	3	3	3	3	3	3	3	3	3	3	3	3	3	3	3	3	3	3	3	3	3	3	3	3	3	3	3	3	3	3	3	3	3	3	3	3	3	3	3	3	3	3	3	3	3	3	3	3	3	3	3	3	3	3	3	3	3	3	3	3	3	3	3	3	3	3	3	3	3	3	3	3	3	3	3	3	3	3	3	3	3	3	3	3	3	3	3	3	3	3	3	3	3	3	3	3	3	3	3	3	3	3	3	3	3	3	3	3	3	3	3	3	3	3	3	3	3	3	3	3	3	3	3	3	3	3	3	3	3	3	3	3	3	3	3	3	3	3	3	3	3	3	3	3	3	3	3	3	3	3	3	3	3	3	3	3	3	3	3	3	3	3	3	3	3	3	3	3	3	3	3	3	3	3	3	3	3	3	3	3	3	3	3	3	3	3	3	3	3	3	3	3	3	3	3	3	3	3	3	3	3	3	3	3	3	3	3	3	3	3	3	3	3	3	3	3	3	3	3	3	3	3	3	3	3	3	3	3	3	3	3	3	3	3	3	3	3	3	3	3	3	3	3	3	3	3	3	3	3	3	3	3	3	3	3	3	3	3	3	3	3	3	3	3	3	3	3	3	3	3	3	3	3	3	3	3	3	3	3	3	3	3	3	3	3	3	3	3	3	3	3	3	3	3	
POINT_DATA 409

SCALARS Density double 1
LOOKUP_TABLE default
1.182500e+00	1.183761e+00	1.223473e+00	1.220638e+00	1.219787e+00	1.219239e+00	1.219129e+00	1.219261e+00	1.219104e+00	1.218763e+00	1.218495e+00	1.218285e+00	1.218182e+00	1.218189e+00	1.218018e+00	1.217694e+00	1.217425e+00	1.217231e+00	1.217056e+00	1.216973e+00	1.216891e+00	1.216946e+00	1.216966e+00	1.216961e+00	1.216924e+00	1.216876e+00	1.216795e+00	1.216731e+00	1.216679e+00	1.216613e+00	1.216536e+00	1.216468e+00	1.216390e+00	1.216328e+00	1.216270e+00	1.216196e+00	1.216132e+00	1.216070e+00	1.216017e+00	1.215977e+00	1.215936e+00	1.215876e+00	1.215859e+00	1.215840e+00	1.215818e+00	1.215808e+00	1.215788e+00	1.215776e+00	1.215787e+00	1.215718e+00	1.215692e+00	1.215667e+00	1.215656e+00	1.215645e+00	1.215631e+00	1.215630e+00	1.215631e+00	1.215598e+00	1.215575e+00	1.215577e+00	1.215557e+00	1.215503e+00	1.215453e+00	1.215409e+00	1.215350e+00	1.215295e+00	1.215273e+00	1.215251e+00	1.215216e+00	1.215158e+00	1.215108e+00	1.215167e+00	1.215117e+00	1.215074e+00	1.215084e+00	1.215069e+00	1.215060e+00	1.215036e+00	1.215017e+00	1.214988e+00	1.214950e+00	1.214938e+00	1.214888e+00	1.214822e+00	1.214762e+00	1.214678e+00	1.214604e+00	1.214551e+00	1.214493e+00	1.214439e+00	1.214405e+00	1.214413e+00	1.214505e+00	1.214718e+00	1.214906e+00	1.215097e+00	1.215249e+00	1.215394e+00	1.215496e+00	1.215546e+00	1.215575e+00	1.215467e+00	1.215256e+00	1.215000e+00	1.214710e+00	1.214475e+00	1.214221e+00	1.213956e+00	1.213790e+00	1.213650e+00	1.213573e+00	1.213612e+00	1.213699e+00	1.213769e+00	1.213826e+00	1.213891e+00	1.213994e+00	1.214060e+00	1.214069e+00	1.214092e+00	1.214089e+00	1.213994e+00	1.213896e+00	1.213849e+00	1.213793e+00	1.213719e+00	1.213671e+00	1.213618e+00	1.213546e+00	1.213477e+00	1.213447e+00	1.213410e+00	1.213396e+00	1.213346e+00	1.213307e+00	1.213237e+00	1.213180e+00	1.213121e+00	1.213067e+00	1.212985e+00	1.212960e+00	1.212913e+00	1.212819e+00	1.212711e+00	1.212612e+00	1.212483e+00	1.212399e+00	1.212338e+00	1.212208e+00	1.212073e+00	1.211984e+00	1.211973e+00	1.211902e+00	1.211839e+00	1.211736e+00	1.211650e+00	1.211540e+00	1.211417e+00	1.211353e+00	1.211249e+00	1.211208e+00	1.211149e+00	1.211136e+00	1.211035e+00	1.210915e+00	1.210855e+00	1.210727e+00	1.210664e+00	1.210540e+00	1.210291e+00	1.210100e+00	1.210013e+00	1.209834e+00	1.209693e+00	1.209481e+00	1.209321e+00	1.209093e+00	1.208935e+00	1.208644e+00	1.208544e+00	1.208301e+00	1.208122e+00	1.208069e+00	1.207824e+00	1.207624e+00	1.207290e+00	1.206986e+00	1.206586e+00	1.206693e+00	1.206684e+00	1.206683e+00	1.206689e+00	1.205431e+00	1.204020e+00	1.204621e+00	1.207325e+00	1.209379e+00	1.210693e+00	1.209984e+00	1.207467e+00	1.216521e+00	1.231849e+00	1.248035e+00	1.257878e+00	1.259816e+00	1.261756e+00	1.260367e+00	1.248250e+00	1.236521e+00	1.225614e+00	1.220110e+00	1.215929e+00	1.214760e+00	1.213724e+00	1.213388e+00	1.212984e+00	1.212749e+00	1.212691e+00	1.212578e+00	1.212918e+00	1.212851e+00	1.212553e+00	1.212600e+00	1.212682e+00	1.213118e+00	1.213224e+00	1.213386e+00	1.213418e+00	1.213552e+00	1.213555e+00	1.213642e+00	1.213665e+00	1.213788e+00	1.213873e+00	1.214048e+00	1.214128e+00	1.214290e+00	1.214404e+00	1.214536e+00	1.214695e+00	1.214753e+00	1.214920e+00	1.214989e+00	1.215129e+00	1.215276e+00	1.215372e+00	1.215465e+00	1.215481e+00	1.215506e+00	1.215502e+00	1.215555e+00	1.215596e+00	1.215685e+00	1.215723e+00	1.215821e+00	1.215863e+00	1.215946e+00	1.216002e+00	1.216052e+00	1.216039e+00	1.216091e+00	1.216137e+00	1.216225e+00	1.216310e+00	1.216369e+00	1.216445e+00	1.216532e+00	1.216639e+00	1.216671e+00	1.216707e+00	1.216725e+00	1.216770e+00	1.216791e+00	1.216866e+00	1.216891e+00	1.216897e+00	1.216939e+00	1.216949e+00	1.216975e+00	1.216981e+00	1.217018e+00	1.217065e+00	1.217122e+00	1.217192e+00	1.217250e+00	1.217290e+00	1.217321e+00	1.217380e+00	1.217401e+00	1.217431e+00	1.217457e+00	1.217450e+00	1.217463e+00	1.217471e+00	1.217477e+00	1.217476e+00	1.217486e+00	1.217490e+00	1.217527e+00	1.217542e+00	1.217528e+00	1.217531e+00	1.217522e+00	1.217487e+00	1.217463e+00	1.217430e+00	1.217364e+00	1.217321e+00	1.217344e+00	1.217391e+00	1.217410e+00	1.217359e+00	1.217296e+00	1.217205e+00	1.217130e+00	1.217042e+00	1.216981e+00	1.216947e+00	1.216979e+00	1.217073e+00	1.217062e+00	1.217016e+00	1.216931e+00	1.216861e+00	1.216758e+00	1.216652e+00	1.216582e+00	1.216447e+00	1.216530e+00	1.216651e+00	1.216728e+00	1.216775e+00	1.216855e+00	1.216859e+00	1.216831e+00	1.216907e+00	1.217106e+00	1.216828e+00	1.216945e+00	1.216921e+00	1.217217e+00	1.217557e+00	1.218093e+00	1.218714e+00	1.219320e+00	1.219896e+00	1.220669e+00	1.221361e+00	1.221780e+00	1.221972e+00	1.222145e+00	1.222446e+00	1.222703e+00	1.222936e+00	1.223204e+00	1.223557e+00	1.223795e+00	1.224056e+00	1.224314e+00	1.224525e+00	1.224675e+00	1.224795e+00	1.224990e+00	1.225225e+00	1.225473e+00	1.225605e+00	1.225783e+00	1.225949e+00	1.226079e+00	1.226151e+00	1.226301e+00	1.226455e+00	1.226631e+00	1.226837e+00	1.227046e+00	1.227168e+00	1.227277e+00	1.227520e+00	1.227683e+00	1.227826e+00	1.227906e+00	1.228000e+00	1.228104e+00	1.228200e+00	1.228303e+00	1.228405e+00	1.228517e+00	1.228660e+00	1.228856e+00	1.229073e+00	1.229262e+00	1.229412e+00	1.229576e+00	1.229770e+00	1.229817e+00	1.229773e+00	1.230053e+00	1.230706e+00	1.230910e+00	1.230859e+00	1.230588e+00	1.229985e+00	1.229381e+00	1.229959e+00	1.230487e+00	1.230109e+00	1.230302e+00	1.233955e+00	1.133639e+00	
VECTORS Momentum double