# vtk DataFile Version 3.0
vtk output
ASCII
DATASET UNSTRUCTURED_GRID
POINTS 15671 double
8.250000e-01	2.490000e-02	0.0	6.750000e-01	-2.870000e-02	0.0	8.250000e-01	2.410000e-02	0.0	1.078890e+00	-1.341520e-01	0.0	1.073600e+00	-1.423860e-01	0.0	3.000000e+01	0.000000e+00	0.0	0.000000e+00	3.000000e+01	0.0	-3.000000e+01	0.000000e+00	0.0	0.000000e+00	-3.000000e+01	0.0	8.225136e-01	2.515232e-02	0.0	8.200260e-01	2.539252e-02	0.0	8.175378e-01	2.562525e-02	0.0	8.150494e-01	2.585730e-02	0.0	8.125613e-01	2.609165e-02	0.0	8.100736e-01	2.633135e-02	0.0	8.075861e-01	2.657236e-02	0.0	8.050983e-01	2.680983e-02	0.0	8.026098e-01	2.704006e-02	0.0	8.001202e-01	2.725873e-02	0.0	7.976299e-01	2.746874e-02	0.0	7.951395e-01	2.767761e-02	0.0	7.926495e-01	2.789148e-02	0.0	7.901604e-01	2.811515e-02	0.0	7.876726e-01	2.835330e-02	0.0	7.851860e-01	2.860319e-02	0.0	7.826998e-01	2.885676e-02	0.0	7.802132e-01	2.910705e-02	0.0	7.777258e-01	2.934887e-02	0.0	7.752372e-01	2.957879e-02	0.0	7.727477e-01	2.979747e-02	0.0	7.702575e-01	3.000941e-02	0.0	7.677670e-01	3.021649e-02	0.0	7.652761e-01	3.042027e-02	0.0	7.627851e-01	3.062199e-02	0.0	7.602941e-01	3.082274e-02	0.0	7.578030e-01	3.102339e-02	0.0	7.553119e-01	3.122471e-02	0.0	7.528212e-01	3.142976e-02	0.0	7.503311e-01	3.164143e-02	0.0	7.478411e-01	3.185610e-02	0.0	7.453511e-01	3.206905e-02	0.0	7.428606e-01	3.227672e-02	0.0	7.403695e-01	3.247765e-02	0.0	7.378779e-01	3.267186e-02	0.0	7.353859e-01	3.286004e-02	0.0	7.328934e-01	3.304304e-02	0.0	7.304007e-01	3.322165e-02	0.0	7.279077e-01	3.339668e-02	0.0	7.254145e-01	3.356925e-02	0.0	7.229212e-01	3.374009e-02	0.0	7.204278e-01	3.390963e-02	0.0	7.179343e-01	3.407814e-02	0.0	7.154408e-01	3.424580e-02	0.0	7.129472e-01	3.441275e-02	0.0	7.104536e-01	3.457908e-02	0.0	7.079600e-01	3.474488e-02	0.0	7.054663e-01	3.491018e-02	0.0	7.029726e-01	3.507505e-02	0.0	7.004789e-01	3.523952e-02	0.0	6.979851e-01	3.540361e-02	0.0	6.954913e-01	3.556734e-02	0.0	6.929975e-01	3.573075e-02	0.0	6.905037e-01	3.589382e-02	0.0	6.880099e-01	3.605658e-02	0.0	6.855160e-01	3.621902e-02	0.0	6.830221e-01	3.638113e-02	0.0	6.805282e-01	3.654289e-02	0.0	6.780343e-01	3.670427e-02	0.0	6.755403e-01	3.686520e-02	0.0	6.730464e-01	3.702597e-02	0.0	6.705524e-01	3.718730e-02	0.0	6.680585e-01	3.734890e-02	0.0	6.655645e-01	3.750979e-02	0.0	6.630704e-01	3.766751e-02	0.0	6.605758e-01	3.781852e-02	0.0	6.580808e-01	3.796176e-02	0.0	6.555854e-01	3.809962e-02	0.0	6.530899e-01	3.823465e-02	0.0	6.505943e-01	3.836829e-02	0.0	6.480987e-01	3.850119e-02	0.0	6.456031e-01	3.863339e-02	0.0	6.431074e-01	3.876490e-02	0.0	6.406117e-01	3.889573e-02	0.0	6.381159e-01	3.902586e-02	0.0	6.356201e-01	3.915530e-02	0.0	6.331243e-01	3.928401e-02	0.0	6.306284e-01	3.941197e-02	0.0	6.281325e-01	3.953916e-02	0.0	6.256365e-01	3.966553e-02	0.0	6.231406e-01	3.979105e-02	0.0	6.206445e-01	3.991565e-02	0.0	6.181484e-01	4.003928e-02	0.0	6.156523e-01	4.016186e-02	0.0	6.131561e-01	4.028332e-02	0.0	6.106598e-01	4.040356e-02	0.0	6.081635e-01	4.052246e-02	0.0	6.056671e-01	4.063988e-02	0.0	6.031707e-01	4.075566e-02	0.0	6.006741e-01	4.086959e-02	0.0	5.981775e-01	4.098194e-02	0.0	5.956808e-01	4.109386e-02	0.0	5.931842e-01	4.120528e-02	0.0	5.906875e-01	4.131604e-02	0.0	5.881908e-01	4.142599e-02	0.0	5.856940e-01	4.153499e-02	0.0	5.831972e-01	4.164289e-02	0.0	5.807003e-01	4.174954e-02	0.0	5.782034e-01	4.185478e-02	0.0	5.757064e-01	4.195847e-02	0.0	5.732093e-01	4.206046e-02	0.0	5.707122e-01	4.216060e-02	0.0	5.682149e-01	4.225874e-02	0.0	5.657176e-01	4.235473e-02	0.0	5.632202e-01	4.244843e-02	0.0	5.607228e-01	4.253967e-02	0.0	5.582252e-01	4.262832e-02	0.0	5.557275e-01	4.271422e-02	0.0	5.532297e-01	4.279722e-02	0.0	5.507319e-01	4.287717e-02	0.0	5.482339e-01	4.295335e-02	0.0	5.457357e-01	4.302426e-02	0.0	5.432375e-01	4.309033e-02	0.0	5.407391e-01	4.315208e-02	0.0	5.382406e-01	4.321004e-02	0.0	5.357421e-01	4.326471e-02	0.0	5.332434e-01	4.331664e-02	0.0	5.307448e-01	4.336634e-02	0.0	5.282461e-01	4.341433e-02	0.0	5.257474e-01	4.346115e-02	0.0	5.232487e-01	4.350731e-02	0.0	5.207499e-01	4.355333e-02	0.0	5.182512e-01	4.359975e-02	0.0	5.157525e-01	4.364709e-02	0.0	5.132539e-01	4.369586e-02	0.0	5.107552e-01	4.374660e-02	0.0	5.082566e-01	4.379982e-02	0.0	5.057581e-01	4.385606e-02	0.0	5.032597e-01	4.391583e-02	0.0	5.007614e-01	4.397966e-02	0.0	4.982631e-01	4.404807e-02	0.0	4.957651e-01	4.412106e-02	0.0	4.932671e-01	4.419809e-02	0.0	4.907692e-01	4.427859e-02	0.0	4.882715e-01	4.436201e-02	0.0	4.857738e-01	4.444779e-02	0.0	4.832762e-01	4.453535e-02	0.0	4.807786e-01	4.462415e-02	0.0	4.782811e-01	4.471362e-02	0.0	4.757835e-01	4.480321e-02	0.0	4.732860e-01	4.489235e-02	0.0	4.707884e-01	4.498048e-02	0.0	4.682907e-01	4.506704e-02	0.0	4.657930e-01	4.515148e-02	0.0	4.632952e-01	4.523322e-02	0.0	4.607973e-01	4.531172e-02	0.0	4.582993e-01	4.538641e-02	0.0	4.558011e-01	4.545672e-02	0.0	4.533028e-01	4.552210e-02	0.0	4.508044e-01	4.558198e-02	0.0	4.483058e-01	4.563631e-02	0.0	4.458072e-01	4.568647e-02	0.0	4.433085e-01	4.573283e-02	0.0	4.408097e-01	4.577564e-02	0.0	4.383108e-01	4.581518e-02	0.0	4.358120e-01	4.585169e-02	0.0	4.333130e-01	4.588545e-02	0.0	4.308141e-01	4.591671e-02	0.0	4.283151e-01	4.594574e-02	0.0	4.258161e-01	4.597280e-02	0.0	4.233171e-01	4.599815e-02	0.0	4.208180e-01	4.602205e-02	0.0	4.183190e-01	4.604476e-02	0.0	4.158199e-01	4.606656e-02	0.0	4.133209e-01	4.608769e-02	0.0	4.108218e-01	4.610842e-02	0.0	4.083228e-01	4.612902e-02	0.0	4.058237e-01	4.614975e-02	0.0	4.033246e-01	4.617086e-02	0.0	4.008256e-01	4.619262e-02	0.0	3.983265e-01	4.621500e-02	0.0	3.958275e-01	4.623715e-02	0.0	3.933284e-01	4.625892e-02	0.0	3.908294e-01	4.628024e-02	0.0	3.883303e-01	4.630103e-02	0.0	3.858312e-01	4.632123e-02	0.0	3.833322e-01	4.634075e-02	0.0	3.808331e-01	4.635952e-02	0.0	3.783340e-01	4.637747e-02	0.0	3.758349e-01	4.639452e-02	0.0	3.733358e-01	4.641059e-02	0.0	3.708367e-01	4.642562e-02	0.0	3.683376e-01	4.643952e-02	0.0	3.658385e-01	4.645222e-02	0.0	3.633394e-01	4.646365e-02	0.0	3.608402e-01	4.647373e-02	0.0	3.583411e-01	4.648238e-02	0.0	3.558420e-01	4.648954e-02	0.0	3.533428e-01	4.649512e-02	0.0	3.508437e-01	4.649906e-02	0.0	3.483445e-01	4.650138e-02	0.0	3.458454e-01	4.650243e-02	0.0	3.433462e-01	4.650223e-02	0.0	3.408471e-01	4.650078e-02	0.0	3.383479e-01	4.649808e-02	0.0	3.358488e-01	4.649413e-02	0.0	3.333496e-01	4.648893e-02	0.0	3.308505e-01	4.648248e-02	0.0	3.283514e-01	4.647478e-02	0.0	3.258522e-01	4.646584e-02	0.0	3.233531e-01	4.645564e-02	0.0	3.208540e-01	4.644420e-02	0.0	3.183549e-01	4.643150e-02	0.0	3.158558e-01	4.641756e-02	0.0	3.133567e-01	4.640237e-02	0.0	3.108576e-01	4.638593e-02	0.0	3.083585e-01	4.636824e-02	0.0	3.058594e-01	4.634930e-02	0.0	3.033603e-01	4.632911e-02	0.0	3.008613e-01	4.630768e-02	0.0	2.983622e-01	4.628515e-02	0.0	2.958632e-01	4.626200e-02	0.0	2.933641e-01	4.623817e-02	0.0	2.908651e-01	4.621353e-02	0.0	2.883661e-01	4.618799e-02	0.0	2.858671e-01	4.616143e-02	0.0	2.833681e-01	4.613373e-02	0.0	2.808691e-01	4.610478e-02	0.0	2.783702e-01	4.607447e-02	0.0	2.758712e-01	4.604270e-02	0.0	2.733723e-01	4.600933e-02	0.0	2.708734e-01	4.597427e-02	0.0	2.683745e-01	4.593741e-02	0.0	2.658757e-01	4.589862e-02	0.0	2.633768e-01	4.585780e-02	0.0	2.608781e-01	4.581483e-02	0.0	2.583793e-01	4.576960e-02	0.0	2.558806e-01	4.572201e-02	0.0	2.533820e-01	4.567193e-02	0.0	2.508834e-01	4.561926e-02	0.0	2.483848e-01	4.556415e-02	0.0	2.458863e-01	4.550741e-02	0.0	2.433879e-01	4.544906e-02	0.0	2.408894e-01	4.538900e-02	0.0	2.383911e-01	4.532718e-02	0.0	2.358927e-01	4.526351e-02	0.0	2.333944e-01	4.519793e-02	0.0	2.308962e-01	4.513034e-02	0.0	2.283980e-01	4.506069e-02	0.0	2.258999e-01	4.498890e-02	0.0	2.234018e-01	4.491489e-02	0.0	2.209039e-01	4.483859e-02	0.0	2.184060e-01	4.475992e-02	0.0	2.159081e-01	4.467881e-02	0.0	2.134104e-01	4.459518e-02	0.0	2.109127e-01	4.450897e-02	0.0	2.084151e-01	4.442009e-02	0.0	2.059177e-01	4.432847e-02	0.0	2.034203e-01	4.423404e-02	0.0	2.009231e-01	4.413672e-02	0.0	1.984259e-01	4.403650e-02	0.0	1.959289e-01	4.393359e-02	0.0	1.934320e-01	4.382811e-02	0.0	1.909352e-01	4.372013e-02	0.0	1.884384e-01	4.360972e-02	0.0	1.859418e-01	4.349693e-02	0.0	1.834453e-01	4.338178e-02	0.0	1.809490e-01	4.326430e-02	0.0	1.784527e-01	4.314449e-02	0.0	1.759565e-01	4.302235e-02	0.0	1.734605e-01	4.289786e-02	0.0	1.709646e-01	4.277100e-02	0.0	1.684688e-01	4.264170e-02	0.0	1.659731e-01	4.250992e-02	0.0	1.634775e-01	4.237557e-02	0.0	1.609822e-01	4.223856e-02	0.0	1.584869e-01	4.209876e-02	0.0	1.559918e-01	4.195602e-02	0.0	1.534970e-01	4.181016e-02	0.0	1.510023e-01	4.166095e-02	0.0	1.485078e-01	4.150830e-02	0.0	1.460135e-01	4.135261e-02	0.0	1.435194e-01	4.119369e-02	0.0	1.410255e-01	4.103126e-02	0.0	1.385319e-01	4.086503e-02	0.0	1.360386e-01	4.069471e-02	0.0	1.335456e-01	4.052000e-02	0.0	1.310529e-01	4.034059e-02	0.0	1.285605e-01	4.015619e-02	0.0	1.260686e-01	3.996653e-02	0.0	1.235771e-01	3.977132e-02	0.0	1.210860e-01	3.957032e-02	0.0	1.185954e-01	3.936331e-02	0.0	1.161054e-01	3.915010e-02	0.0	1.136159e-01	3.893054e-02	0.0	1.111270e-01	3.870451e-02	0.0	1.086387e-01	3.847177e-02	0.0	1.061512e-01	3.823146e-02	0.0	1.036643e-01	3.798369e-02	0.0	1.011782e-01	3.772865e-02	0.0	9.869287e-02	3.746648e-02	0.0	9.620827e-02	3.719729e-02	0.0	9.372442e-02	3.692112e-02	0.0	9.124137e-02	3.663798e-02	0.0	8.875912e-02	3.634781e-02	0.0	8.627772e-02	3.605050e-02	0.0	8.379721e-02	3.574585e-02	0.0	8.131765e-02	3.543360e-02	0.0	7.883910e-02	3.511337e-02	0.0	7.636167e-02	3.478463e-02	0.0	7.388555e-02	3.444616e-02	0.0	7.141141e-02	3.409353e-02	0.0	6.893949e-02	3.372563e-02	0.0	6.646993e-02	3.334223e-02	0.0	6.400283e-02	3.294327e-02	0.0	6.153828e-02	3.252889e-02	0.0	5.907630e-02	3.209950e-02	0.0	5.661685e-02	3.165585e-02	0.0	5.415979e-02	3.119911e-02	0.0	5.170489e-02	3.073094e-02	0.0	4.925167e-02	3.025400e-02	0.0	4.679885e-02	2.977507e-02	0.0	4.434779e-02	2.928717e-02	0.0	4.190165e-02	2.877527e-02	0.0	3.946461e-02	2.822178e-02	0.0	3.704086e-02	2.761278e-02	0.0	3.463303e-02	2.694363e-02	0.0	3.224134e-02	2.621885e-02	0.0	2.986710e-02	2.543878e-02	0.0	2.750733e-02	2.461591e-02	0.0	2.515848e-02	2.376234e-02	0.0	2.281
[...]
POINT_DATA 15671

SCALARS Density double 1
LOOKUP_TABLE default
1.164846e+00	1.212232e+00	1.179709e+00	1.182584e+00	1.184907e+00	1.224255e+00	1.224557e+00	1.225018e+00	1.225420e+00	1.194484e+00	1.193487e+00	1.193534e+00	1.193441e+00	1.193263e+00	1.192984e+00	1.192817e+00	1.192804e+00	1.193027e+00	1.193506e+00	1.193892e+00	1.194094e+00	1.194206e+00	1.193815e+00	1.193374e+00	1.192931e+00	1.192672e+00	1.192540e+00	1.192626e+00	1.192880e+00	1.193123e+00	1.193288e+00	1.193431e+00	1.193574e+00	1.193690e+00	1.193797e+00	1.193861e+00	1.193902e+00	1.193707e+00	1.193445e+00	1.193241e+00	1.193168e+00	1.193205e+00	1.193297e+00	1.193406e+00	1.193511e+00	1.193602e+00	1.193691e+00	1.193791e+00	1.193870e+00	1.193909e+00	1.193938e+00	1.193993e+00	1.194024e+00	1.194064e+00	1.194073e+00	1.194069e+00	1.194086e+00	1.194104e+00	1.194119e+00	1.194104e+00	1.194116e+00	1.194104e+00	1.194060e+00	1.194063e+00	1.194036e+00	1.194030e+00	1.194021e+00	1.194007e+00	1.193978e+00	1.193925e+00	1.193795e+00	1.193652e+00	1.193553e+00	1.193559e+00	1.193685e+00	1.193854e+00	1.193972e+00	1.194019e+00	1.193996e+00	1.194005e+00	1.194000e+00	1.193954e+00	1.193926e+00	1.193926e+00	1.193908e+00	1.193880e+00	1.193893e+00	1.193892e+00	1.193851e+00	1.193851e+00	1.193802e+00	1.193779e+00	1.193749e+00	1.193693e+00	1.193664e+00	1.193663e+00	1.193660e+00	1.193630e+00	1.193654e+00	1.193663e+00	1.193613e+00	1.193590e+00	1.193525e+00	1.193475e+00	1.193450e+00	1.193417e+00	1.193378e+00	1.193369e+00	1.193321e+00	1.193304e+00	1.193253e+00	1.193225e+00	1.193170e+00	1.193105e+00	1.193069e+00	1.193069e+00	1.193037e+00	1.193004e+00	1.193006e+00	1.193014e+00	1.193093e+00	1.193129e+00	1.193185e+00	1.193226e+00	1.193270e+00	1.193341e+00	1.193438e+00	1.193503e+00	1.193543e+00	1.193617e+00	1.193665e+00	1.193661e+00	1.193697e+00	1.193727e+00	1.193760e+00	1.193722e+00	1.193707e+00	1.193626e+00	1.193557e+00	1.193431e+00	1.193343e+00	1.193181e+00	1.193054e+00	1.192917e+00	1.192797e+00	1.192654e+00	1.192541e+00	1.192388e+00	1.192278e+00	1.192143e+00	1.192026e+00	1.191871e+00	1.191750e+00	1.191644e+00	1.191574e+00	1.191493e+00	1.191433e+00	1.191384e+00	1.191396e+00	1.191385e+00	1.191378e+00	1.191355e+00	1.191348e+00	1.191327e+00	1.191332e+00	1.191328e+00	1.191348e+00	1.191348e+00	1.191320e+00	1.191277e+00	1.191285e+00	1.191265e+00	1.191265e+00	1.191225e+00	1.191211e+00	1.191151e+00	1.191103e+00	1.191054e+00	1.190979e+00	1.190867e+00	1.190795e+00	1.190752e+00	1.190688e+00	1.190650e+00	1.190582e+00	1.190504e+00	1.190424e+00	1.190280e+00	1.190214e+00	1.190103e+00	1.190017e+00	1.189968e+00	1.189880e+00	1.189818e+00	1.189723e+00	1.189661e+00	1.189622e+00	1.189532e+00	1.189485e+00	1.189391e+00	1.189340e+00	1.189254e+00	1.189217e+00	1.189117e+00	1.189056e+00	1.188950e+00	1.188846e+00	1.188802e+00	1.188724e+00	1.188590e+00	1.188496e+00	1.188448e+00	1.188351e+00	1.188277e+00	1.188171e+00	1.188116e+00	1.188011e+00	1.187972e+00	1.187895e+00	1.187749e+00	1.187640e+00	1.187488e+00	1.187397e+00	1.187258e+00	1.187167e+00	1.187021e+00	1.186946e+00	1.186793e+00	1.186700e+00	1.186544e+00	1.186436e+00	1.186273e+00	1.186169e+00	1.186018e+00	1.185918e+00	1.185712e+00	1.185586e+00	1.185527e+00	1.185421e+00	1.185260e+00	1.185151e+00	1.185004e+00	1.184911e+00	1.184782e+00	1.184626e+00	1.184489e+00	1.184406e+00	1.184268e+00	1.184021e+00	1.183835e+00	1.183733e+00	1.183560e+00	1.183374e+00	1.183330e+00	1.183216e+00	1.182976e+00	1.182781e+00	1.182548e+00	1.182431e+00	1.182218e+00	1.182092e+00	1.181895e+00	1.181739e+00	1.181562e+00	1.181353e+00	1.181134e+00	1.180975e+00	1.180768e+00	1.180612e+00	1.180506e+00	1.180246e+00	1.180020e+00	1.179863e+00	1.179459e+00	1.179130e+00	1.178886e+00	1.178636e+00	1.178303e+00	1.178022e+00	1.177807e+00	1.177467e+00	1.177228e+00	1.176915e+00	1.176706e+00	1.176336e+00	1.176086e+00	1.175681e+00	1.175390e+00	1.174993e+00	1.174728e+00	1.174351e+00	1.174036e+00	1.173806e+00	1.173553e+00	1.173168e+00	1.172596e+00	1.172081e+00	1.171820e+00	1.171457e+00	1.171128e+00	1.170727e+00	1.170096e+00	1.169653e+00	1.169164e+00	1.168718e+00	1.168039e+00	1.167198e+00	1.166330e+00	1.165715e+00	1.165027e+00	1.164510e+00	1.164250e+00	1.163631e+00	1.163038e+00	1.162295e+00	1.161591e+00	1.161011e+00	1.160362e+00	1.159441e+00	1.157610e+00	1.155358e+00	1.153620e+00	1.152058e+00	1.150861e+00	1.149922e+00	1.149335e+00	1.149542e+00	1.149622e+00	1.149114e+00	1.147503e+00	1.145479e+00	1.142246e+00	1.138043e+00	1.131493e+00	1.121825e+00	1.115051e+00	1.128572e+00	1.136244e+00	1.137625e+00	1.155284e+00	1.166741e+00	1.181260e+00	1.197304e+00	1.210086e+00	1.224606e+00	1.235331e+00	1.245081e+00	1.252851e+00	1.257820e+00	1.256707e+00	1.257670e+00	1.257935e+00	1.256196e+00	1.254617e+00	1.252681e+00	1.251197e+00	1.249798e+00	1.249249e+00	1.248532e+00	1.247759e+00	1.246974e+00	1.246506e+00	1.245597e+00	1.245087e+00	1.244368e+00	1.244103e+00	1.243580e+00	1.242991e+00	1.242774e+00	1.242288e+00	1.241808e+00	1.241715e+00	1.241542e+00	1.241118e+00	1.240591e+00	1.240227e+00	1.239908e+00	1.239653e+00	1.239379e+00	1.238979e+00	1.238801e+00	1.238611e+00	1.238452e+00	1.238319e+00	1.238145e+00	1.237944e+00	1.237771e+00	1.237620e+00	1.237394e+00	1.237245e+00	1.237041e+00	1.236924e+00	1.236779e+00	1.236597e+00	1.236440e+00	1.236311e+00	1.236215e+00	1.236066e+00	1.235913e+00	1.235800e+00	1.235691e+00	1.235593e+00	1.235540e+00	1.235460e+00	1.235374e+00	1.235298e+00	1.235240e+00	1.235193e+00	1.235138e+00	1.235077e+00	1.235059e+00	1.234973e+00	1.234876e+00	1.234809e+00	1.234748e+00	1.234699e+00	1.234648e+00	1.234610e+00	1.234550e+00	1.234517e+00	1.234468e+00	1.234418e+00	1.234372e+00	1.234320e+00	1.234282e+00	1.234213e+00	1.234160e+00	1.234130e+00	1.234080e+00	1.233986e+00	1.233938e+00	1.233888e+00	1.233852e+00	1.233808e+00	1.233766e+00	1.233723e+00	1.233683e+00	1.233650e+00	1.233632e+00	1.233607e+00	1.233576e+00	1.233542e+00	1.233507e+00	1.233479e+00	1.233439e+00	1.233410e+00	1.233387e+00	1.233376e+00	1.233374e+00	1.233367e+00	1.233326e+00	1.233278e+00	1.233244e+00	1.233202e+00	1.233170e+00	1.233146e+00	1.233133e+00	1.233122e+00	1.233123e+00	1.233106e+00	1.233092e+00	1.233081e+00	1.233069e+00	1.233062e+00	1.233057e+00	1.233060e+00	1.233054e+00	1.233051e+00	1.233039e+00	1.233040e+00	1.233022e+00	1.232985e+00	1.232969e+00	1.232955e+00	1.232941e+00	1.232936e+00	1.232920e+00	1.232906e+00	1.232903e+00	1.232896e+00	1.232889e+00	1.232879e+00	1.232869e+00	1.232858e+00	1.232855e+00	1.232838e+00	1.232828e+00	1.232821e+00	1.232811e+00	1.232807e+00	1.232795e+00	1.232783e+00	1.232777e+00	1.232774e+00	1.232769e+00	1.232769e+00	1.232768e+00	1.232767e+00	1.232767e+00	1.232765e+00	1.232764e+00	1.232767e+00	1.232770e+00	1.232770e+00	1.232771e+00	1.232774e+00	1.232781e+00	1.232792e+00	1.232796e+00	1.232796e+00	1.232797e+00	1.232797e+00	1.232796e+00	1.232794e+00	1.232788e+00	1.232784e+00	1.232789e+00	1.232785e+00	1.232781e+00	1.232776e+00	1.232775e+00	1.232770e+00	1.232763e+00	1.232756e+00	1.232757e+00	1.232764e+00	1.232773e+00	1.232779e+00	1.232778e+00	1.232779e+00	1.232792e+00	1.232811e+00	1.232819e+00	1.232823e+00	1.232820e+00	1.232831e+00	1.232833e+00	1.232824e+00	1.232816e+00	1.232811e+00	1.232809e+00	1.232803e+00	1.232808e+00	1.232805e+00	1.232808e+00	1.232806e+00	1.232802e+00	1.232793e+00	1.232795e+00	1.232800e+00	1.232822e+00	1.232865e+00	1.232891e+00	1.232911e+00	1.232919e+00	1.232923e+00	1.232920e+00	1.232909e+00	1.232904e+00	1.232904e+00	1.232891e+00	1.232890e+00	1.232889e+00	1.232886e+00	1.232900e+00	1.232903e+00	1.232906e+00	1.232904e+00	1.232912e+00	1.232905e+00	1.232961e+00	1.233037e+00	1.233098e+00	1.233133e+00	1.233156e+00	1.233173e+00	1.233195e+00	1.233206e+00	1.233222e+00	1.233208e+00	1.233206e+00	1.233201e+00	1.233231e+00	1.233223e+00	1.233250e+00	1.233277e+00	1.233274e+00	1.233299e+00	1.233285e+00	1.233356e+00	1.233400e+00	1.233397e+00	1.233443e+00	1.233549e+00	1.233686e+00	1.233785e+00	1.233897e+00	1.234002e+00	1.234104e+00	1.234241e+00	1.234323e+00	1.234427e+00	1.234560e+00	1.234674e+00	1.234842e+00	1.234898e+00	1.235039e+00	1.235176e+00	1.235290e+00	1.235444e+00	1.235501e+00	1.235395e+00	1.235299e+00	1.235222e+00	1.235205e+00	1.235523e+00	1.235995e+00	1.236500e+00	1.237300e+00	1.239742e+00	1.194559e+00	1.206589e+00	1.210592e+00	1.213247e+00	1.215030e+00	1.215507e+00	1.215519e+00	1.215977e+00	1.216401e+00	1.216906e+00	1.217143e+00	1.217608e+00	1.217888e+00	1.218069e+00	1.218302e+00	1.218411e+00	1.218668e+00	1.219121e+00	1.219496e+00	1.219992e+00	1.220366e+00	1.220502e+00	1.220700e+00	1.220814e+00	1.221168e+00	1.221529e+00	1.221765e+00	1.222022e+00	1.222314e+00	1.222581e+00	1.222696e+00	1.222801e+00	1.223179e+00	1.223315e+00	1.223449e+00	1.223653e+00	1.223805e+00	1.224059e+00	1.224302e+00	1.224439e+00	1.224588e+00	1.224870e+00	1.225011e+00	1.225161e+00	1.225447e+00	1.225461e+00	1.225561e+00	1.226005e+00	1.226141e+00	1.226446e+00	1.226673e+00	1.226837e+00	1.227050e+00	1.227468e+00	1.227819e+00	1.227787e+00	1.228088e+00	1.228295e+00	1.228230e+00	1.228260e+00	1.228480e+00	1.228152e+00	1.228059e+00	1.229226e+00	1.227553e+00	1.226076e+00	1.224415e+00	1.222336e+00	1.219248e+00	1.217200e+00	1.224185e+00	1.224293e+00	1.224438e+00	1.224529e+00	1.224559e+00	1.224579e+00	1.224599e+00	1.224599e+00	1.224599e+00	1.224597e+00	1.224588e+00	1.224583e+00	1.224572e+00	1.224571e+00	1.224566e+00	1.224564e+00	1.224567e+00	1.224587e+00	1.224601e+00	1.224623e+00	1.224665e+00	1.224690e+00	1.224722e+00	1.224761e+00	1.224801e+00	1.224836e+00	1.224866e+00	1.224904e+00	1.224941e+00	1.224981e+00	1.225055e+00	1.225094e+00	1.225128e+00	1.225157e+00	1.225195e+00	1.225230e+00	1.225263e+00	1.225291e+00	1.225313e+00	1.225339e+00	1.225364e+00	1.225381e+00	1.225393e+00	1.225410e+00	1.225420e+00	1.225414e+00	1.225402e+00	1.225388e+00	1.225376e+00	1.225357e+00	1.225339e+00	1.225318e+00	1.225295e+00	1.225263e+00	1.225227e+00	1.225192e+00	1.225140e+00	1.225049e+00	1.224864e+00	1.224537e+00	1.206558e+00	1.204572e+00	1.204714e+00	1.204738e+00	1.204522e+00	1.203581e+00	1.201350e+00	1.199607e+00	1.199613e+00	1.200501e+00	1.201305e+00	1.201783e+00	1.202078e+00	1.202123e+00	1.202086e+00	1.202044e+00	1.201987e+00	1.201887e+00	1.201679e+00	1.201405e+00	1.201035e+00	1.200769e+00	1.200488e+00	1.200216e+00	1.199958e+00	1.199755e+00	1.199448e+00	1.199210e+00	1.198988e+00	1.198735e+00	1.198466e+00	1.198208e+00	1.198002e+00	1.197807e+00	1.197652e+00	1.197412e+00	1.197141e+00	1.196776e+00	1.196545e+00	1.196295e+00	1.196047e+00	1.195723e+00	1.195466e+00	1.195133e+00	1.194751e+00	1.194476e+00	1.194174e+00	1.193852e+00	1.193449e+00	1.193113e+00	1.192768e+00	1.192419e+00	1.191984e+00	1.191574e+00	1.191113e+00	1.190732e+00	1.190319e+00	1.189947e+00	1.189536e+00	1.189113e+00	1.188621e+00	1.188106e+00	1.187418e+00	1.186747e+00	1.186132e+00	1.185516e+00	1.185073e+00	1.184728e+00	1.184356e+00	1.183983e+00	1.183362e+00	1.182726e+00	1.181869e+00	1.181170e+00	1.180707e+00	1.180201e+00	1.179773e+00	1.179359e+00	1.179394e+00	1.179272e+00	1.179218e+00	1.179088e+00	1.179065e+00	1.178941e+00	1.178698e+00	1.178392e+00	1.178057e+00	1.177759e+00	1.177420e+00	1.177027e+00	1.176681e+00	1.176376e+00	1.176077e+00	1.175676e+00	1.175476e+00	1.175032e+00	1.174612e+00	1.174319e+00	1.173725e+00	1.173109e+00	1.172588e+00	1.171907e+00	1.171473e+00	1.171116e+00	1.170912e+00	1.171068e+00	1.171236e+00	1.171133e+00	1.170817e+00	1.170497e+00	1.170257e+00	1.169900e+00	1.169289e+00	1.168971e+00	1.168737e+00	1.168305e+00	1.168068e+00	1.168283e+00	1.168867e+00	1.169233e+00	1.170783e+00	1.171337e+00	1.172047e+00	1.171830e+00	1.171519e+00	1.171878e+00	1.173731e+00	1.175854e+00	1.177784e+00	1.178794e+00	1.178259e+00	1.177447e+00	1.182759e+00	1.187695e+00	1.191812e+00	1.197322e+00	1.200435e+00	1.206067e+00	1.213443e+00	1.219704e+00	1.223923e+00	1.229404e+00	1.237280e+00	1.242209e+00	1.241530e+00	1.240690e+00	1.240334e+00	1.240082e+00	1.240256e+00	1.240222e+00	1.240608e+00	1.240590e+00	1.240530e+00	1.240647e+00	1.240866e+00	1.240844e+00	1.240873e+00	1.240916e+00	1.240831e+00	1.240918e+00	1.240990e+00	1.240988e+00	1.240924e+00	1.240992e+00	1.241026e+00	1.241003e+00	1.240970e+00	1.240972e+00	1.241032e+00	1.241031e+00	1.241153e+00	1.241163e+00	1.241075e+00	1.241087e+00	1.241085e+00	1.241091e+00	1.241191e+00	1.241218e+00	1.241174e+00	1.241112e+00	1.241177e+00	1.241134e+00	1.241092e+00	1.241021e+00	1.241036e+00	1.240991e+00	1.240937e+00	1.240890e+00	1.240936e+00	1.240911e+00	1.240833e+00	1.240776e+00	1.240746e+00	1.240713e+00	1.240791e+00	1.240824e+00	1.240790e+00	1.240733e+00	1.240735e+00	1.240672e+00	1.240693e+00	1.240616e+00	1.240576e+00	1.240555e+00	1.240465e+00	1.240469e+00	1.240435e+00	1.240407e+00	1.240406e+00	1.240390e+00	1.240409e+00	1.240338e+00	1.240311e+00	1.240336e+00	1.240303e+00	1.240198e+00	1.240181e+00	1.240188e+00	1.240140e+00	1.240106e+00	1.240089e+00	1.240043e+00	1.240067e+00	1.240044e+00	1.240002e+00	1.239928e+00	1.239949e+00	1.239920e+00	1.239895e+00	1.239925e+00	1.239852e+00	1.239762e+00	1.239727e+00	1.239704e+00	1.239680e+00	1.239675e+00	1.239614e+00	1.239597e+00	1.239611e+00	1.239596e+00	1.239524e+00	1.239467e+00	1.239479e+00	1.239426e+00	1.239397e+00	1.239359e+00	1.239335e+00	1.239362e+00	1.239345e+00	1.239295e+00	1.239249e+00	1.239256e+00	1.239208e+00	1.239169e+00	1.239168e+00	1.239113e+00	1.239055e+00	1.239037e+00	1.239012e+00	1.238983e+00	1.238983e+00	1.238942e+00	1.238885e+00	1.238839e+00	1.238831e+00	1.238766e+00	1.238719e+00	1.238672e+00	1.238608e+00	1.238593e+00	1.238558e+00	1.238505e+00	1.238462e+00	1.238394e+00	1.238387e+00	1.238374e+00	1.238311e+00	1.238269e+00	1.238226e+00	1.238206e+00	1.238151e+00	1.238113e+00	1.238062e+00	1.238041e+00	1.238000e+00	1.237976e+00	1.237959e+00	1.237908e+00	1.237932e+00	1.237922e+00	1.237888e+00	1.237825e+00	1.237806e+00	1.237757e+00	1.237671e+00	1.237682e+00	1.237578e+00	1.237464e+00	1.237390e+00	1.237329e+00	1.237259e+00	1.237199e+00	1.237102e+00	1.237029e+00	1.236941e+00	1.236862e+00	1.236873e+00	1.236912e+00	1.236947e+00	1.236878e+00	1.236797e+00	1.236702e+00	1.236813e+00	1.236612e+00	1.236543e+00	1.236404e+00	1.236225e+00	1.236099e+00	1.235911e+00	1.235707e+00	1.235559e+00	1.235635e+00	1.235598e+00	1.235522e+00	1.235430e+00	1.235315e+00	1.235211e+00	1.235059e+00	1.234973e+00	1.234907e+00	1.234619e+00	1.234445e+00	1.234505e+00	1.234603e+00	1.234506e+00	1.234364e+00	1.234004e+00	1.233554e+00	1.232872e+00	1.232126e+00	1.232327e+00	1.232777e+00	1.236179e+00	1.129040e+00	1.155087e+00	1.166296e+00	1.170808e+00	1.164128e+00	1.224277e+00	1.225573e+00	1.226075e+00	1.223642e+00	1.227122e+00	1.223404e+00	1.222020e+00	1.228998e+00	1.222107e+00	1.219107e+00	1.216890e+00	1.231738e+00	1.235026e+00	1.218800e+00	1.236671e+00	1.209668e+00	1.218564e+00	1.240173e+00	1.227112e+00	1.215132e+00	1.201608e+00	1.226142e+00	1.241803e+00	1.226032e+00	1.236738e+00	1.232564e+00	1.213071e+00	1.209672e+00	1.235776e+00	1.241640e+00	1.206052e+00	1.193724e+00	1.238040e+00	1.210109e+00	1.228025e+00	1.207006e+00	1.238609e+00	1.238753e+00	1.237086e+00	1.236698e+00	1.209462e+00	1.224256e+00	1.225278e+00	1.200388e+00	1.238301e+00	1.242480e+00	1.242928e+00	1.198021e+00	1.241798e+00	1.240000e+00	1.237561e+00	1.234814e+00	1.236916e+00	1.231602e+00	1.201904e+00	1.203795e+00	1.202113e+00	1.201790e+00	1.224104e+00	1.236313e+00	1.204320e+00	1.237019e+00	1.217379e+00	1.230269e+00	1.189953e+00	1.238732e+00	1.219465e+00	1.236343e+00	1.237198e+00	1.201096e+00	1.203956e+00	1.200006e+00	1.198750e+00	1.197275e+00	1.196773e+00	1.195169e+00	1.225314e+00	1.235982e+00	1.240824e+00	1.242915e+00	1.232226e+00	1.238400e+00	1.237231e+00	1.239719e+00	1.238322e+00	1.238523e+00	1.233133e+00	1.195216e+00	1.242344e+00	1.232932e+00	1.235345e+00	1.240666e+00	1.194173e+00	1.236212e+00	1.235305e+00	1.203347e+00	1.242476e+00	1.241487e+00	1.220660e+00	1.240080e+00	1.242228e+00	1.190678e+00	1.196581e+00	1.198490e+00	1.198098e+00	1.198072e+00	1.197568e+00	1.197004e+00	1.196106e+00	1.235188e+00	1.235446e+00	1.235990e+00	1.236930e+00	1.195491e+00	1.194914e+00	1.224398e+00	1.225387e+00	1.241640e+00	1.240637e+00	1.235789e+00	1.235134e+00	1.193725e+00	1.193107e+00	1.192093e+00	1.190502e+00	1.235040e+00	1.205812e+00	1.189219e+00	1.188012e+00	1.242500e+00	1.237760e+00	1.239416e+00	1.233985e+00	1.234824e+00	1.190551e+00	1.195390e+00	1.200031e+00	1.185730e+00	1.230590e+00	1.240116e+00	1.239567e+00	1.238663e+00	1.224548e+00	1.225162e+00	1.240245e+00	1.224829e+00	1.234514e+00	1.234292e+00	1.234073e+00	1.220360e+00	1.241849e+00	1.241453e+00	1.237846e+00	1.242377e+00	1.237224e+00	1.225935e+00	1.224442e+00	1.231092e+00	1.237386e+00	1.183562e+00	1.187095e+00	1.196187e+00	1.242155e+00	1.195943e+00	1.238901e+00	1.234976e+00	1.234307e+00	1.223880e+00	1.225965e+00	1.237787e+00	1.189593e+00	1.237418e+00	1.195762e+00	1.236122e+00	1.242857e+00	1.240863e+00	1.240543e+00	1.193650e+00	1.240359e+00	1.234039e+00	1.233985e+00	1.196175e+00	1.195819e+00	1.240869e+00	1.243450e+00	1.234841e+00	1.236328e+00	1.193118e+00	1.242107e+00	1.238016e+00	1.221086e+00	1.223162e+00	1.234767e+00	1.205712e+00	1.207174e+00	1.202446e+00	1.241854e+00	1.240972e+00	1.212238e+00	1.234147e+00	1.232573e+00	1.241255e+00	1.233889e+00	1.239230e+00	1.234335e+00	1.195389e+00	1.241142e+00	1.195048e+00	1.183780e+00	1.190030e+00	1.235376e+00	1.229648e+00	1.233925e+00	1.235229e+00	1.235678e+00	1.235416e+00	1.216518e+00	1.224134e+00	1.183680e+00	1.225442e+00	1.225613e+00	1.194873e+00	1.227357e+00	1.234129e+00	1.194067e+00	1.184341e+00	1.181063e+00	1.224800e+00	1.195464e+00	1.194709e+00	1.194865e+00	1.195143e+00	1.193458e+00	1.237384e+00	1.191449e+00	1.234561e+00	1.188764e+00	1.235048e+00	1.192428e+00	1.234500e+00	1.242037e+00	1.188330e+00	1.239932e+00	1.186933e+00	1.185778e+00	1.184168e+00	1.236162e+00	1.224352e+00	1.177354e+00	1.215364e+00	1.245809e+00	1.244583e+00	1.176063e+00	1.224086e+00	1.238412e+00	1.222890e+00	1.193756e+00	1.192207e+00	1.192899e+00	1.190324e+00	1.189541e+00	1.193567e+00	1.212773e+00	1.194971e+00	1.208297e+00	1.240024e+00	1.242487e+00	1.196242e+00	1.198716e+00	1.234661e+00	1.188664e+00	1.240677e+00	1.234029e+00	1.238155e+00	1.239326e+00	1.237764e+00	1.238908e+00	1.172639e+00	1.220731e+00	1.193769e+00	1.235680e+00	1.183633e+00	1.202644e+00	1.204068e+00	1.235505e+00	1.239756e+00	1.241070e+00	1.183678e+00	1.235187e+00	1.241426e+00	1.238776e+00	1.226371e+00	1.190898e+00	1.241727e+00	1.233741e+00	1.215715e+00	1.242070e+00	1.241934e+00	1.237183e+00	1.238303e+00	1.238008e+00	1.230299e+00	1.240941e+00	1.236501e+00	1.236762e+00	1.225640e+00	1.223179e+00	1.224149e+00	1.233855e+00	1.239181e+00	1.238041e+00	1.236524e+00	1.216709e+00	1.205004e+00	1.206293e+00	1.210145e+00	1.200985e+00	1.223875e+00	1.229865e+00	1.238617e+00	1.237580e+00	1.236894e+00	1.233929e+00	1.230178e+00	1.229226e+00	1.227272e+00	1.194790e+00	1.233530e+00	1.170599e+00	1.239349e+00	1.173585e+00	1.238850e+00	1.233463e+00	1.185272e+00	1.244426e+00	1.199271e+00	1.241891e+00	1.224443e+00	1.241514e+00	1.241298e+00	1.217763e+00	1.242369e+00	1.241787e+00	1.202489e+00	1.240665e+00	1.206556e+00	1.194287e+00	1.242136e+00	1.238750e+00	1.243150e+00	1.194358e+00	1.241501e+00	1.236596e+00	1.233673e+00	1.194650e+00	1.220601e+00	1.231875e+00	1.237889e+00	1.221564e+00	1.194317e+00	1.194823e+00	1.228787e+00	1.228346e+00	1.194497e+00	1.194938e+00	1.230956e+00	1.233647e+00	1.224409e+00	1.239153e+00	1.224494e+00	1.223295e+00	1.239473e+00	1.234482e+00	1.221135e+00	1.189121e+00	1.193440e+00	1.234119e+00	1.186779e+00	1.246705e+00	1.207374e+00	1.222895e+00	1.236086e+00	1.243012e+00	1.213931e+00	1.233499e+00	1.239467e+00	1.235681e+00	1.224885e+00	1.225046e+00	1.181140e+00	1.178900e+00	1.222686e+00	1.238039e+00	1.225425e+00	1.211609e+00	1.217167e+00	1.233642e+00	1.235754e+00	1.242595e+00	1.233451e+00	1.240954e+00	1.199150e+00	1.225366e+00	1.237529e+00	1.239107e+00	1.199395e+00	1.240240e+00	1.225432e+00	1.224190e+00	1.236044e+00	1.240322e+00	1.239373e+00	1.178687e+00	1.240615e+00	1.232232e+00	1.194153e+00	1.217984e+00	1.238879e+00	1.237631e+00	1.233451e+00	1.248640e+00	1.233366e+00	1.236965e+00	1.194138e+00	1.226000e+00	1.225391e+00	1.226220e+00	1.200041e+00	1.183390e+00	1.184683e+00	1.194580e+00	1.242034e+00	1.239791e+00	1.193844e+00	1.202135e+00	1.25103