# vtk DataFile Version 3.0
vtk output
ASCII
DATASET UNSTRUCTURED_GRID
POINTS 15671 double
8.250000e-01	2.490000e-02	0.0	6.750000e-01	-2.870000e-02	0.0	8.250000e-01	2.410000e-02	0.0	1.078890e+00	-1.341520e-01	0.0	1.073600e+00	-1.423860e-01	0.0	3.000000e+01	0.000000e+00	0.0	0.000000e+00	3.000000e+01	0.0	-3.000000e+01	0.000000e+00	0.0	0.000000e+00	-3.000000e+01	0.0	8.225136e-01	2.515232e-02	0.0	8.200260e-01	2.539252e-02	0.0	8.175378e-01	2.562525e-02	0.0	8.150494e-01	2.585730e-02	0.0	8.125613e-01	2.609165e-02	0.0	8.100736e-01	2.633135e-02	0.0	8.075861e-01	2.657236e-02	0.0	8.050983e-01	2.680983e-02	0.0	8.026098e-01	2.704006e-02	0.0	8.001202e-01	2.725873e-02	0.0	7.976299e-01	2.746874e-02	0.0	7.951395e-01	2.767761e-02	0.0	7.926495e-01	2.789148e-02	0.0	7.901604e-01	2.811515e-02	0.0	7.876726e-01	2.835330e-02	0.0	7.851860e-01	2.860319e-02	0.0	7.826998e-01	2.885676e-02	0.0	7.802132e-01	2.910705e-02	0.0	7.777258e-01	2.934887e-02	0.0	7.752372e-01	2.957879e-02	0.0	7.727477e-01	2.979747e-02	0.0	7.702575e-01	3.000941e-02	0.0	7.677670e-01	3.021649e-02	0.0	7.652761e-01	3.042027e-02	0.0	7.627851e-01	3.062199e-02	0.0	7.602941e-01	3.082274e-02	0.0	7.578030e-01	3.102339e-02	0.0	7.553119e-01	3.122471e-02	0.0	7.528212e-01	3.142976e-02	0.0	7.503311e-01	3.164143e-02	0.0	7.478411e-01	3.185610e-02	0.0	7.453511e-01	3.206905e-02	0.0	7.428606e-01	3.227672e-02	0.0	7.403695e-01	3.247765e-02	0.0	7.378779e-01	3.267186e-02	0.0	7.353859e-01	3.286004e-02	0.0	7.328934e-01	3.304304e-02	0.0	7.304007e-01	3.322165e-02	0.0	7.279077e-01	3.339668e-02	0.0	7.254145e-01	3.356925e-02	0.0	7.229212e-01	3.374009e-02	0.0	7.204278e-01	3.390963e-02	0.0	7.179343e-01	3.407814e-02	0.0	7.154408e-01	3.424580e-02	0.0	7.129472e-01	3.441275e-02	0.0	7.104536e-01	3.457908e-02	0.0	7.079600e-01	3.474488e-02	0.0	7.054663e-01	3.491018e-02	0.0	7.029726e-01	3.507505e-02	0.0	7.004789e-01	3.523952e-02	0.0	6.979851e-01	3.540361e-02	0.0	6.954913e-01	3.556734e-02	0.0	6.929975e-01	3.573075e-02	0.0	6.905037e-01	3.589382e-02	0.0	6.880099e-01	3.605658e-02	0.0	6.855160e-01	3.621902e-02	0.0	6.830221e-01	3.638113e-02	0.0	6.805282e-01	3.654289e-02	0.0	6.780343e-01	3.670427e-02	0.0	6.755403e-01	3.686520e-02	0.0	6.730464e-01	3.702597e-02	0.0	6.705524e-01	3.718730e-02	0.0	6.680585e-01	3.734890e-02	0.0	6.655645e-01	3.750979e-02	0.0	6.630704e-01	3.766751e-02	0.0	6.605758e-01	3.781852e-02	0.0	6.580808e-01	3.796176e-02	0.0	6.555854e-01	3.809962e-02	0.0	6.530899e-01	3.823465e-02	0.0	6.505943e-01	3.836829e-02	0.0	6.480987e-01	3.850119e-02	0.0	6.456031e-01	3.863339e-02	0.0	6.431074e-01	3.876490e-02	0.0	6.406117e-01	3.889573e-02	0.0	6.381159e-01	3.902586e-02	0.0	6.356201e-01	3.915530e-02	0.0	6.331243e-01	3.928401e-02	0.0	6.306284e-01	3.941197e-02	0.0	6.281325e-01	3.953916e-02	0.0	6.256365e-01	3.966553e-02	0.0	6.231406e-01	3.979105e-02	0.0	6.206445e-01	3.991565e-02	0.0	6.181484e-01	4.003928e-02	0.0	6.156523e-01	4.016186e-02	0.0	6.131561e-01	4.028332e-02	0.0	6.106598e-01	4.040356e-02	0.0	6.081635e-01	4.052246e-02	0.0	6.056671e-01	4.063988e-02	0.0	6.031707e-01	4.075566e-02	0.0	6.006741e-01	4.086959e-02	0.0	5.981775e-01	4.098194e-02	0.0	5.956808e-01	4.109386e-02	0.0	5.931842e-01	4.120528e-02	0.0	5.906875e-01	4.131604e-02	0.0	5.881908e-01	4.142599e-02	0.0	5.856940e-01	4.153499e-02	0.0	5.831972e-01	4.164289e-02	0.0	5.807003e-01	4.174954e-02	0.0	5.782034e-01	4.185478e-02	0.0	5.757064e-01	4.195847e-02	0.0	5.732093e-01	4.206046e-02	0.0	5.707122e-01	4.216060e-02	0.0	5.682149e-01	4.225874e-02	0.0	5.657176e-01	4.235473e-02	0.0	5.632202e-01	4.244843e-02	0.0	5.607228e-01	4.253967e-02	0.0	5.582252e-01	4.262832e-02	0.0	5.557275e-01	4.271422e-02	0.0	5.532297e-01	4.279722e-02	0.0	5.507319e-01	4.287717e-02	0.0	5.482339e-01	4.295335e-02	0.0	5.457357e-01	4.302426e-02	0.0	5.432375e-01	4.309033e-02	0.0	5.407391e-01	4.315208e-02	0.0	5.382406e-01	4.321004e-02	0.0	5.357421e-01	4.326471e-02	0.0	5.332434e-01	4.331664e-02	0.0	5.307448e-01	4.336634e-02	0.0	5.282461e-01	4.341433e-02	0.0	5.257474e-01	4.346115e-02	0.0	5.232487e-01	4.350731e-02	0.0	5.207499e-01	4.355333e-02	0.0	5.182512e-01	4.359975e-02	0.0	5.157525e-01	4.364709e-02	0.0	5.132539e-01	4.369586e-02	0.0	5.107552e-01	4.374660e-02	0.0	5.082566e-01	4.379982e-02	0.0	5.057581e-01	4.385606e-02	0.0	5.032597e-01	4.391583e-02	0.0	5.007614e-01	4.397966e-02	0.0	4.982631e-01	4.404807e-02	0.0	4.957651e-01	4.412106e-02	0.0	4.932671e-01	4.419809e-02	0.0	4.907692e-01	4.427859e-02	0.0	4.882715e-01	4.436201e-02	0.0	4.857738e-01	4.444779e-02	0.0	4.832762e-01	4.453535e-02	0.0	4.807786e-01	4.462415e-02	0.0	4.782811e-01	4.471362e-02	0.0	4.757835e-01	4.480321e-02	0.0	4.732860e-01	4.489235e-02	0.0	4.707884e-01	4.498048e-02	0.0	4.682907e-01	4.506704e-02	0.0	4.657930e-01	4.515148e-02	0.0	4.632952e-01	4.523322e-02	0.0	4.607973e-01	4.531172e-02	0.0	4.582993e-01	4.538641e-02	0.0	4.558011e-01	4.545672e-02	0.0	4.533028e-01	4.552210e-02	0.0	4.508044e-01	4.558198e-02	0.0	4.483058e-01	4.563631e-02	0.0	4.458072e-01	4.568647e-02	0.0	4.433085e-01	4.573283e-02	0.0	4.408097e-01	4.577564e-02	0.0	4.383108e-01	4.581518e-02	0.0	4.358120e-01	4.585169e-02	0.0	4.333130e-01	4.588545e-02	0.0	4.308141e-01	4.591671e-02	0.0	4.283151e-01	4.594574e-02	0.0	4.258161e-01	4.597280e-02	0.0	4.233171e-01	4.599815e-02	0.0	4.208180e-01	4.602205e-02	0.0	4.183190e-01	4.604476e-02	0.0	4.158199e-01	4.606656e-02	0.0	4.133209e-01	4.608769e-02	0.0	4.108218e-01	4.610842e-02	0.0	4.083228e-01	4.612902e-02	0.0	4.058237e-01	4.614975e-02	0.0	4.033246e-01	4.617086e-02	0.0	4.008256e-01	4.619262e-02	0.0	3.983265e-01	4.621500e-02	0.0	3.958275e-01	4.623715e-02	0.0	3.933284e-01	4.625892e-02	0.0	3.908294e-01	4.628024e-02	0.0	3.883303e-01	4.630103e-02	0.0	3.858312e-01	4.632123e-02	0.0	3.833322e-01	4.634075e-02	0.0	3.808331e-01	4.635952e-02	0.0	3.783340e-01	4.637747e-02	0.0	3.758349e-01	4.639452e-02	0.0	3.733358e-01	4.641059e-02	0.0	3.708367e-01	4.642562e-02	0.0	3.683376e-01	4.643952e-02	0.0	3.658385e-01	4.645222e-02	0.0	3.633394e-01	4.646365e-02	0.0	3.608402e-01	4.647373e-02	0.0	3.583411e-01	4.648238e-02	0.0	3.558420e-01	4.648954e-02	0.0	3.533428e-01	4.649512e-02	0.0	3.508437e-01	4.649906e-02	0.0	3.483445e-01	4.650138e-02	0.0	3.458454e-01	4.650243e-02	0.0	3.433462e-01	4.650223e-02	0.0	3.408471e-01	4.650078e-02	0.0	3.383479e-01	4.649808e-02	0.0	3.358488e-01	4.649413e-02	0.0	3.333496e-01	4.648893e-02	0.0	3.308505e-01	4.648248e-02	0.0	3.283514e-01	4.647478e-02	0.0	3.258522e-01	4.646584e-02	0.0	3.233531e-01	4.645564e-02	0.0	3.208540e-01	4.644420e-02	0.0	3.183549e-01	4.643150e-02	0.0	3.158558e-01	4.641756e-02	0.0	3.133567e-01	4.640237e-02	0.0	3.108576e-01	4.638593e-02	0.0	3.083585e-01	4.636824e-02	0.0	3.058594e-01	4.634930e-02	0.0	3.033603e-01	4.632911e-02	0.0	3.008613e-01	4.630768e-02	0.0	2.983622e-01	4.628515e-02	0.0	2.958632e-01	4.626200e-02	0.0	2.933641e-01	4.623817e-02	0.0	2.908651e-01	4.621353e-02	0.0	2.883661e-01	4.618799e-02	0.0	2.858671e-01	4.616143e-02	0.0	2.833681e-01	4.613373e-02	0.0	2.808691e-01	4.610478e-02	0.0	2.783702e-01	4.607447e-02	0.0	2.758712e-01	4.604270e-02	0.0	2.733723e-01	4.600933e-02	0.0	2.708734e-01	4.597427e-02	0.0	2.683745e-01	4.593741e-02	0.0	2.658757e-01	4.589862e-02	0.0	2.633768e-01	4.585780e-02	0.0	2.608781e-01	4.581483e-02	0.0	2.583793e-01	4.576960e-02	0.0	2.558806e-01	4.572201e-02	0.0	2.533820e-01	4.567193e-02	0.0	2.508834e-01	4.561926e-02	0.0	2.483848e-01	4.556415e-02	0.0	2.458863e-01	4.550741e-02	0.0	2.433879e-01	4.544906e-02	0.0	2.408894e-01	4.538900e-02	0.0	2.383911e-01	4.532718e-02	0.0	2.358927e-01	4.526351e-02	0.0	2.333944e-01	4.519793e-02	0.0	2.308962e-01	4.513034e-02	0.0	2.283980e-01	4.506069e-02	0.0	2.258999e-01	4.498890e-02	0.0	2.234018e-01	4.491489e-02	0.0	2.209039e-01	4.483859e-02	0.0	2.184060e-01	4.475992e-02	0.0	2.159081e-01	4.467881e-02	0.0	2.134104e-01	4.459518e-02	0.0	2.109127e-01	4.450897e-02	0.0	2.084151e-01	4.442009e-02	0.0	2.059177e-01	4.432847e-02	0.0	2.034203e-01	4.423404e-02	0.0	2.009231e-01	4.413672e-02	0.0	1.984259e-01	4.403650e-02	0.0	1.959289e-01	4.393359e-02	0.0	1.934320e-01	4.382811e-02	0.0	1.909352e-01	4.372013e-02	0.0	1.884384e-01	4.360972e-02	0.0	1.859418e-01	4.349693e-02	0.0	1.834453e-01	4.338178e-02	0.0	1.809490e-01	4.326430e-02	0.0	1.784527e-01	4.314449e-02	0.0	1.759565e-01	4.302235e-02	0.0	1.734605e-01	4.289786e-02	0.0	1.709646e-01	4.277100e-02	0.0	1.684688e-01	4.264170e-02	0.0	1.659731e-01	4.250992e-02	0.0	1.634775e-01	4.237557e-02	0.0	1.609822e-01	4.223856e-02	0.0	1.584869e-01	4.209876e-02	0.0	1.559918e-01	4.195602e-02	0.0	1.534970e-01	4.181016e-02	0.0	1.510023e-01	4.166095e-02	0.0	1.485078e-01	4.150830e-02	0.0	1.460135e-01	4.135261e-02	0.0	1.435194e-01	4.119369e-02	0.0	1.410255e-01	4.103126e-02	0.0	1.385319e-01	4.086503e-02	0.0	1.360386e-01	4.069471e-02	0.0	1.335456e-01	4.052000e-02	0.0	1.310529e-01	4.034059e-02	0.0	1.285605e-01	4.015619e-02	0.0	1.260686e-01	3.996653e-02	0.0	1.235771e-01	3.977132e-02	0.0	1.210860e-01	3.957032e-02	0.0	1.185954e-01	3.936331e-02	0.0	1.161054e-01	3.915010e-02	0.0	1.136159e-01	3.893054e-02	0.0	1.111270e-01	3.870451e-02	0.0	1.086387e-01	3.847177e-02	0.0	1.061512e-01	3.823146e-02	0.0	1.036643e-01	3.798369e-02	0.0	1.011782e-01	3.772865e-02	0.0	9.869287e-02	3.746648e-02	0.0	9.620827e-02	3.719729e-02	0.0	9.372442e-02	3.692112e-02	0.0	9.124137e-02	3.663798e-02	0.0	8.875912e-02	3.634781e-02	0.0	8.627772e-02	3.605050e-02	0.0	8.379721e-02	3.574585e-02	0.0	8.131765e-02	3.543360e-02	0.0	7.883910e-02	3.511337e-02	0.0	7.636167e-02	3.478463e-02	0.0	7.388555e-02	3.444616e-02	0.0	7.141141e-02	3.409353e-02	0.0	6.893949e-02	3.372563e-02	0.0	6.646993e-02	3.334223e-02	0.0	6.400283e-02	3.294327e-02	0.0	6.153828e-02	3.252889e-02	0.0	5.907630e-02	3.209950e-02	0.0	5.661685e-02	3.165585e-02	0.0	5.415979e-02	3.119911e-02	0.0	5.170489e-02	3.073094e-02	0.0	4.925167e-02	3.025400e-02	0.0	4.679885e-02	2.977507e-02	0.0	4.434779e-02	2.928717e-02	0.0	4.190165e-02	2.877527e-02	0.0	3.946461e-02	2.822178e-02	0.0	3.704086e-02	2.761278e-02	0.0	3.463303e-02	2.694363e-02	0.0	3.224134e-02	2.621885e-02	0.0	2.986710e-02	2.543878e-02	0.0	2.750733e-02	2.461591e-02	0.0	2.515848e-02	2.376234e-02	0.0	2.281
[...]
POINT_DATA 15671

SCALARS Density double 1
LOOKUP_TABLE default
1.165570e+00	1.211251e+00	1.178366e+00	1.184045e+00	1.187353e+00	1.224390e+00	1.224619e+00	1.225027e+00	1.225346e+00	1.197594e+00	1.196534e+00	1.196606e+00	1.196526e+00	1.196343e+00	1.196047e+00	1.195875e+00	1.195888e+00	1.196183e+00	1.196765e+00	1.197257e+00	1.197539e+00	1.197714e+00	1.197295e+00	1.196819e+00	1.196331e+00	1.196043e+00	1.195917e+00	1.196030e+00	1.196341e+00	1.196652e+00	1.196866e+00	1.197064e+00	1.197254e+00	1.197424e+00	1.197574e+00	1.197684e+00	1.197759e+00	1.197573e+00	1.197294e+00	1.197085e+00	1.197017e+00	1.197078e+00	1.197209e+00	1.197356e+00	1.197504e+00	1.197643e+00	1.197776e+00	1.197917e+00	1.198037e+00	1.198123e+00	1.198189e+00	1.198274e+00	1.198339e+00	1.198408e+00	1.198449e+00	1.198475e+00	1.198520e+00	1.198565e+00	1.198609e+00	1.198623e+00	1.198655e+00	1.198669e+00	1.198652e+00	1.198675e+00	1.198675e+00	1.198688e+00	1.198699e+00	1.198704e+00	1.198695e+00	1.198655e+00	1.198536e+00	1.198396e+00	1.198294e+00	1.198320e+00	1.198485e+00	1.198692e+00	1.198852e+00	1.198941e+00	1.198957e+00	1.198990e+00	1.199017e+00	1.199009e+00	1.199010e+00	1.199034e+00	1.199045e+00	1.199045e+00	1.199076e+00	1.199098e+00	1.199080e+00	1.199097e+00	1.199074e+00	1.199080e+00	1.199070e+00	1.199043e+00	1.199043e+00	1.199059e+00	1.199078e+00	1.199078e+00	1.199122e+00	1.199155e+00	1.199130e+00	1.199126e+00	1.199090e+00	1.199061e+00	1.199052e+00	1.199039e+00	1.199021e+00	1.199026e+00	1.199001e+00	1.198997e+00	1.198969e+00	1.198960e+00	1.198934e+00	1.198896e+00	1.198881e+00	1.198904e+00	1.198900e+00	1.198886e+00	1.198907e+00	1.198948e+00	1.199053e+00	1.199133e+00	1.199226e+00	1.199319e+00	1.199403e+00	1.199515e+00	1.199648e+00	1.199755e+00	1.199833e+00	1.199944e+00	1.200031e+00	1.200068e+00	1.200140e+00	1.200202e+00	1.200276e+00	1.200271e+00	1.200285e+00	1.200237e+00	1.200189e+00	1.200081e+00	1.200004e+00	1.199860e+00	1.199743e+00	1.199616e+00	1.199502e+00	1.199368e+00	1.199260e+00	1.199119e+00	1.199012e+00	1.198888e+00	1.198777e+00	1.198643e+00	1.198534e+00	1.198442e+00	1.198384e+00	1.198325e+00	1.198282e+00	1.198272e+00	1.198315e+00	1.198346e+00	1.198368e+00	1.198388e+00	1.198411e+00	1.198427e+00	1.198463e+00	1.198499e+00	1.198543e+00	1.198578e+00	1.198593e+00	1.198591e+00	1.198626e+00	1.198644e+00	1.198672e+00	1.198667e+00	1.198682e+00	1.198660e+00	1.198638e+00	1.198610e+00	1.198560e+00	1.198484e+00	1.198438e+00	1.198417e+00	1.198380e+00	1.198362e+00	1.198320e+00	1.198268e+00	1.198218e+00	1.198115e+00	1.198076e+00	1.198005e+00	1.197949e+00	1.197924e+00	1.197868e+00	1.197832e+00	1.197776e+00	1.197739e+00	1.197723e+00	1.197673e+00	1.197658e+00	1.197605e+00	1.197580e+00	1.197531e+00	1.197516e+00	1.197458e+00	1.197428e+00	1.197364e+00	1.197300e+00	1.197281e+00	1.197239e+00	1.197152e+00	1.197094e+00	1.197074e+00	1.197019e+00	1.196980e+00	1.196916e+00	1.196890e+00	1.196830e+00	1.196816e+00	1.196777e+00	1.196676e+00	1.196607e+00	1.196501e+00	1.196441e+00	1.196347e+00	1.196289e+00	1.196190e+00	1.196141e+00	1.196036e+00	1.195975e+00	1.195866e+00	1.195795e+00	1.195687e+00	1.195622e+00	1.195520e+00	1.195460e+00	1.195324e+00	1.195243e+00	1.195216e+00	1.195164e+00	1.195066e+00	1.195000e+00	1.194908e+00	1.194853e+00	1.194772e+00	1.194668e+00	1.194575e+00	1.194528e+00	1.194443e+00	1.194269e+00	1.194138e+00	1.194077e+00	1.193968e+00	1.193843e+00	1.193831e+00	1.193761e+00	1.193592e+00	1.193464e+00	1.193316e+00	1.193255e+00	1.193124e+00	1.193055e+00	1.192930e+00	1.192836e+00	1.192721e+00	1.192590e+00	1.192446e+00	1.192353e+00	1.192217e+00	1.192132e+00	1.192082e+00	1.191893e+00	1.191735e+00	1.191635e+00	1.191348e+00	1.191113e+00	1.190946e+00	1.190778e+00	1.190552e+00	1.190371e+00	1.190224e+00	1.189986e+00	1.189826e+00	1.189608e+00	1.189472e+00	1.189215e+00	1.189048e+00	1.188757e+00	1.188560e+00	1.188284e+00	1.188109e+00	1.187857e+00	1.187646e+00	1.187524e+00	1.187377e+00	1.187121e+00	1.186724e+00	1.186366e+00	1.186238e+00	1.186025e+00	1.185819e+00	1.185564e+00	1.185129e+00	1.184847e+00	1.184540e+00	1.184256e+00	1.183804e+00	1.183191e+00	1.182564e+00	1.182146e+00	1.181689e+00	1.181382e+00	1.181319e+00	1.180987e+00	1.180699e+00	1.180255e+00	1.179847e+00	1.179584e+00	1.179224e+00	1.178673e+00	1.177304e+00	1.175522e+00	1.174225e+00	1.173196e+00	1.172525e+00	1.172172e+00	1.172215e+00	1.173047e+00	1.173666e+00	1.173781e+00	1.173100e+00	1.172075e+00	1.169991e+00	1.167332e+00	1.162985e+00	1.156329e+00	1.152398e+00	1.165942e+00	1.173981e+00	1.177003e+00	1.192429e+00	1.202441e+00	1.214625e+00	1.226853e+00	1.236575e+00	1.246206e+00	1.252630e+00	1.257878e+00	1.261811e+00	1.261952e+00	1.259225e+00	1.256230e+00	1.254693e+00	1.251819e+00	1.248943e+00	1.246386e+00	1.244242e+00	1.242318e+00	1.241488e+00	1.240886e+00	1.240085e+00	1.239285e+00	1.238685e+00	1.237833e+00	1.237396e+00	1.236810e+00	1.236528e+00	1.236058e+00	1.235529e+00	1.235287e+00	1.234911e+00	1.234581e+00	1.234516e+00	1.234399e+00	1.234092e+00	1.233672e+00	1.233355e+00	1.233087e+00	1.232850e+00	1.232649e+00	1.232338e+00	1.232221e+00	1.232121e+00	1.232022e+00	1.231945e+00	1.231833e+00	1.231717e+00	1.231608e+00	1.231512e+00	1.231350e+00	1.231251e+00	1.231113e+00	1.231031e+00	1.230936e+00	1.230802e+00	1.230701e+00	1.230628e+00	1.230582e+00	1.230500e+00	1.230417e+00	1.230355e+00	1.230289e+00	1.230239e+00	1.230228e+00	1.230191e+00	1.230157e+00	1.230129e+00	1.230118e+00	1.230101e+00	1.230093e+00	1.230076e+00	1.230101e+00	1.230062e+00	1.230011e+00	1.229992e+00	1.229963e+00	1.229958e+00	1.229942e+00	1.229937e+00	1.229906e+00	1.229906e+00	1.229899e+00	1.229876e+00	1.229865e+00	1.229846e+00	1.229840e+00	1.229804e+00	1.229785e+00	1.229777e+00	1.229763e+00	1.229712e+00	1.229696e+00	1.229675e+00	1.229662e+00	1.229647e+00	1.229634e+00	1.229615e+00	1.229603e+00	1.229595e+00	1.229601e+00	1.229603e+00	1.229599e+00	1.229598e+00	1.229594e+00	1.229593e+00	1.229582e+00	1.229582e+00	1.229582e+00	1.229591e+00	1.229613e+00	1.229632e+00	1.229616e+00	1.229589e+00	1.229579e+00	1.229565e+00	1.229559e+00	1.229559e+00	1.229569e+00	1.229584e+00	1.229609e+00	1.229619e+00	1.229625e+00	1.229637e+00	1.229647e+00	1.229664e+00	1.229678e+00	1.229700e+00	1.229716e+00	1.229738e+00	1.229747e+00	1.229769e+00	1.229784e+00	1.229759e+00	1.229775e+00	1.229781e+00	1.229786e+00	1.229800e+00	1.229806e+00	1.229810e+00	1.229824e+00	1.229837e+00	1.229844e+00	1.229850e+00	1.229857e+00	1.229866e+00	1.229878e+00	1.229881e+00	1.229898e+00	1.229912e+00	1.229917e+00	1.229930e+00	1.229937e+00	1.229939e+00	1.229950e+00	1.229964e+00	1.229978e+00	1.229994e+00	1.230008e+00	1.230024e+00	1.230044e+00	1.230057e+00	1.230073e+00	1.230092e+00	1.230110e+00	1.230125e+00	1.230145e+00	1.230163e+00	1.230185e+00	1.230217e+00	1.230237e+00	1.230249e+00	1.230267e+00	1.230284e+00	1.230300e+00	1.230313e+00	1.230321e+00	1.230332e+00	1.230349e+00	1.230361e+00	1.230369e+00	1.230381e+00	1.230396e+00	1.230405e+00	1.230415e+00	1.230423e+00	1.230439e+00	1.230460e+00	1.230480e+00	1.230502e+00	1.230518e+00	1.230531e+00	1.230559e+00	1.230592e+00	1.230615e+00	1.230631e+00	1.230640e+00	1.230670e+00	1.230686e+00	1.230689e+00	1.230689e+00	1.230700e+00	1.230712e+00	1.230721e+00	1.230738e+00	1.230749e+00	1.230764e+00	1.230774e+00	1.230784e+00	1.230788e+00	1.230799e+00	1.230814e+00	1.230851e+00	1.230907e+00	1.230945e+00	1.230981e+00	1.231000e+00	1.231019e+00	1.231028e+00	1.231027e+00	1.231036e+00	1.231045e+00	1.231044e+00	1.231056e+00	1.231063e+00	1.231073e+00	1.231101e+00	1.231115e+00	1.231128e+00	1.231139e+00	1.231160e+00	1.231165e+00	1.231236e+00	1.231323e+00	1.231397e+00	1.231444e+00	1.231479e+00	1.231507e+00	1.231542e+00	1.231564e+00	1.231590e+00	1.231585e+00	1.231594e+00	1.231601e+00	1.231646e+00	1.231650e+00	1.231685e+00	1.231722e+00	1.231730e+00	1.231769e+00	1.231765e+00	1.231847e+00	1.231906e+00	1.231915e+00	1.231970e+00	1.232089e+00	1.232241e+00	1.232350e+00	1.232475e+00	1.232592e+00	1.232706e+00	1.232856e+00	1.232948e+00	1.233063e+00	1.233210e+00	1.233338e+00	1.233519e+00	1.233583e+00	1.233739e+00	1.233889e+00	1.234012e+00	1.234179e+00	1.234247e+00	1.234151e+00	1.234067e+00	1.234002e+00	1.233996e+00	1.234328e+00	1.234814e+00	1.235327e+00	1.236128e+00	1.238534e+00	1.193762e+00	1.205766e+00	1.209715e+00	1.212332e+00	1.214097e+00	1.214564e+00	1.214568e+00	1.215013e+00	1.215430e+00	1.215929e+00	1.216161e+00	1.216620e+00	1.216895e+00	1.217070e+00	1.217297e+00	1.217402e+00	1.217653e+00	1.218099e+00	1.218469e+00	1.218956e+00	1.219326e+00	1.219458e+00	1.219653e+00	1.219764e+00	1.220113e+00	1.220471e+00	1.220704e+00	1.220959e+00	1.221250e+00	1.221520e+00	1.221633e+00	1.221737e+00	1.222111e+00	1.222241e+00	1.222373e+00	1.222580e+00	1.222738e+00	1.222993e+00	1.223243e+00	1.223379e+00	1.223537e+00	1.223791e+00	1.223918e+00	1.224059e+00	1.224331e+00	1.224343e+00	1.224441e+00	1.224881e+00	1.225012e+00	1.225316e+00	1.225544e+00	1.225704e+00	1.225918e+00	1.226335e+00	1.226690e+00	1.226660e+00	1.226964e+00	1.227171e+00	1.227107e+00	1.227139e+00	1.227364e+00	1.227037e+00	1.226947e+00	1.228118e+00	1.226438e+00	1.224961e+00	1.223305e+00	1.221238e+00	1.218181e+00	1.216139e+00	1.224422e+00	1.224528e+00	1.224602e+00	1.224641e+00	1.224650e+00	1.224656e+00	1.224664e+00	1.224661e+00	1.224657e+00	1.224654e+00	1.224645e+00	1.224642e+00	1.224633e+00	1.224632e+00	1.224627e+00	1.224629e+00	1.224638e+00	1.224658e+00	1.224672e+00	1.224693e+00	1.224728e+00	1.224750e+00	1.224778e+00	1.224811e+00	1.224845e+00	1.224875e+00	1.224900e+00	1.224932e+00	1.224963e+00	1.224996e+00	1.225058e+00	1.225090e+00	1.225118e+00	1.225142e+00	1.225174e+00	1.225202e+00	1.225229e+00	1.225252e+00	1.225270e+00	1.225291e+00	1.225311e+00	1.225323e+00	1.225333e+00	1.225344e+00	1.225350e+00	1.225338e+00	1.225328e+00	1.225316e+00	1.225305e+00	1.225290e+00	1.225274e+00	1.225257e+00	1.225236e+00	1.225208e+00	1.225176e+00	1.225141e+00	1.225085e+00	1.224974e+00	1.224774e+00	1.224524e+00	1.210719e+00	1.208608e+00	1.208786e+00	1.208785e+00	1.208517e+00	1.207416e+00	1.204798e+00	1.202678e+00	1.202585e+00	1.203546e+00	1.204445e+00	1.205006e+00	1.205341e+00	1.205396e+00	1.205364e+00	1.205320e+00	1.205254e+00	1.205136e+00	1.204894e+00	1.204577e+00	1.204146e+00	1.203821e+00	1.203486e+00	1.203161e+00	1.202849e+00	1.202592e+00	1.202227e+00	1.201937e+00	1.201666e+00	1.201360e+00	1.201039e+00	1.200732e+00	1.200482e+00	1.200249e+00	1.200057e+00	1.199768e+00	1.199446e+00	1.199020e+00	1.198740e+00	1.198437e+00	1.198137e+00	1.197755e+00	1.197437e+00	1.197043e+00	1.196598e+00	1.196268e+00	1.195901e+00	1.195515e+00	1.195038e+00	1.194637e+00	1.194220e+00	1.193799e+00	1.193287e+00	1.192804e+00	1.192262e+00	1.191810e+00	1.191318e+00	1.190873e+00	1.190384e+00	1.189881e+00	1.189298e+00	1.188675e+00	1.187867e+00	1.187068e+00	1.186316e+00	1.185583e+00	1.185043e+00	1.184616e+00	1.184185e+00	1.183730e+00	1.182999e+00	1.182246e+00	1.181256e+00	1.180442e+00	1.179851e+00	1.179244e+00	1.178741e+00	1.178265e+00	1.178271e+00	1.178130e+00	1.178079e+00	1.177956e+00	1.177929e+00	1.177802e+00	1.177538e+00	1.177213e+00	1.176821e+00	1.176469e+00	1.176085e+00	1.175659e+00	1.175267e+00	1.174913e+00	1.174567e+00	1.174130e+00	1.173912e+00	1.173397e+00	1.172921e+00	1.172585e+00	1.171892e+00	1.171213e+00	1.170651e+00	1.169843e+00	1.169328e+00	1.168925e+00	1.168687e+00	1.168875e+00	1.169068e+00	1.168987e+00	1.168671e+00	1.168269e+00	1.168016e+00	1.167575e+00	1.166962e+00	1.166558e+00	1.166220e+00	1.165794e+00	1.165531e+00	1.165835e+00	1.166512e+00	1.167011e+00	1.168687e+00	1.169337e+00	1.170238e+00	1.170161e+00	1.169814e+00	1.170301e+00	1.172217e+00	1.174681e+00	1.176844e+00	1.178001e+00	1.177652e+00	1.176898e+00	1.182278e+00	1.187215e+00	1.191261e+00	1.196687e+00	1.199687e+00	1.205206e+00	1.212446e+00	1.218579e+00	1.222676e+00	1.228029e+00	1.235837e+00	1.240950e+00	1.240389e+00	1.239473e+00	1.239089e+00	1.238856e+00	1.239052e+00	1.239028e+00	1.239420e+00	1.239405e+00	1.239349e+00	1.239467e+00	1.239685e+00	1.239668e+00	1.239699e+00	1.239746e+00	1.239666e+00	1.239756e+00	1.239832e+00	1.239835e+00	1.239776e+00	1.239847e+00	1.239884e+00	1.239864e+00	1.239833e+00	1.239838e+00	1.239901e+00	1.239903e+00	1.240027e+00	1.240040e+00	1.239955e+00	1.239969e+00	1.239970e+00	1.239979e+00	1.240082e+00	1.240111e+00	1.240071e+00	1.240014e+00	1.240082e+00	1.240042e+00	1.240004e+00	1.239937e+00	1.239955e+00	1.239913e+00	1.239863e+00	1.239819e+00	1.239868e+00	1.239847e+00	1.239772e+00	1.239719e+00	1.239692e+00	1.239662e+00	1.239743e+00	1.239779e+00	1.239748e+00	1.239694e+00	1.239699e+00	1.239639e+00	1.239662e+00	1.239588e+00	1.239551e+00	1.239533e+00	1.239447e+00	1.239453e+00	1.239423e+00	1.239398e+00	1.239400e+00	1.239387e+00	1.239408e+00	1.239339e+00	1.239315e+00	1.239343e+00	1.239314e+00	1.239211e+00	1.239196e+00	1.239206e+00	1.239161e+00	1.239130e+00	1.239116e+00	1.239073e+00	1.239098e+00	1.239078e+00	1.239040e+00	1.238968e+00	1.238991e+00	1.238965e+00	1.238943e+00	1.238975e+00	1.238906e+00	1.238819e+00	1.238787e+00	1.238767e+00	1.238746e+00	1.238744e+00	1.238686e+00	1.238670e+00	1.238687e+00	1.238674e+00	1.238605e+00	1.238552e+00	1.238567e+00	1.238516e+00	1.238490e+00	1.238454e+00	1.238432e+00	1.238462e+00	1.238447e+00	1.238401e+00	1.238357e+00	1.238366e+00	1.238321e+00	1.238286e+00	1.238287e+00	1.238236e+00	1.238180e+00	1.238165e+00	1.238143e+00	1.238118e+00	1.238120e+00	1.238083e+00	1.238030e+00	1.237987e+00	1.237983e+00	1.237922e+00	1.237878e+00	1.237835e+00	1.237774e+00	1.237763e+00	1.237732e+00	1.237683e+00	1.237643e+00	1.237579e+00	1.237575e+00	1.237566e+00	1.237507e+00	1.237470e+00	1.237430e+00	1.237413e+00	1.237361e+00	1.237327e+00	1.237279e+00	1.237261e+00	1.237223e+00	1.237202e+00	1.237189e+00	1.237141e+00	1.237167e+00	1.237161e+00	1.237131e+00	1.237074e+00	1.237058e+00	1.237015e+00	1.236934e+00	1.236949e+00	1.236852e+00	1.236744e+00	1.236677e+00	1.236622e+00	1.236558e+00	1.236504e+00	1.236414e+00	1.236347e+00	1.236265e+00	1.236192e+00	1.236206e+00	1.236247e+00	1.236286e+00	1.236224e+00	1.236151e+00	1.236064e+00	1.236176e+00	1.235989e+00	1.235927e+00	1.235800e+00	1.235634e+00	1.235519e+00	1.235344e+00	1.235154e+00	1.235018e+00	1.235098e+00	1.235071e+00	1.235006e+00	1.234927e+00	1.234827e+00	1.234738e+00	1.234603e+00	1.234532e+00	1.234480e+00	1.234216e+00	1.234063e+00	1.234132e+00	1.234245e+00	1.234176e+00	1.234066e+00	1.233755e+00	1.233352e+00	1.232742e+00	1.232056e+00	1.232310e+00	1.232827e+00	1.236246e+00	1.134173e+00	1.158812e+00	1.168562e+00	1.172447e+00	1.164277e+00	1.224386e+00	1.225478e+00	1.225899e+00	1.223863e+00	1.226767e+00	1.223607e+00	1.222510e+00	1.228318e+00	1.222453e+00	1.220099e+00	1.217831e+00	1.230611e+00	1.233732e+00	1.219597e+00	1.235644e+00	1.210863e+00	1.221123e+00	1.238896e+00	1.226839e+00	1.217321e+00	1.203062e+00	1.225924e+00	1.240612e+00	1.225739e+00	1.234842e+00	1.231060e+00	1.215239e+00	1.213205e+00	1.233323e+00	1.240547e+00	1.208372e+00	1.195414e+00	1.237165e+00	1.211243e+00	1.227924e+00	1.210539e+00	1.237422e+00	1.237305e+00	1.235186e+00	1.234070e+00	1.213821e+00	1.224443e+00	1.225249e+00	1.202839e+00	1.237058e+00	1.241302e+00	1.241823e+00	1.199108e+00	1.240776e+00	1.239094e+00	1.234259e+00	1.232865e+00	1.236218e+00	1.231171e+00	1.205037e+00	1.207512e+00	1.207052e+00	1.207908e+00	1.224387e+00	1.234006e+00	1.211278e+00	1.235374e+00	1.221602e+00	1.230711e+00	1.191719e+00	1.235417e+00	1.220768e+00	1.233526e+00	1.233790e+00	1.205150e+00	1.205589e+00	1.204980e+00	1.204585e+00	1.203997e+00	1.204119e+00	1.203829e+00	1.225291e+00	1.234092e+00	1.239888e+00	1.241773e+00	1.230994e+00	1.237120e+00	1.235809e+00	1.238864e+00	1.237565e+00	1.234451e+00	1.232786e+00	1.197785e+00	1.241295e+00	1.231590e+00	1.233200e+00	1.236142e+00	1.204472e+00	1.235615e+00	1.232896e+00	1.212821e+00	1.241388e+00	1.240492e+00	1.226100e+00	1.238852e+00	1.241021e+00	1.191510e+00	1.199740e+00	1.202032e+00	1.202213e+00	1.202691e+00	1.202684e+00	1.202652e+00	1.202236e+00	1.232497e+00	1.232456e+00	1.232636e+00	1.233121e+00	1.202060e+00	1.201909e+00	1.224465e+00	1.225307e+00	1.238156e+00	1.239688e+00	1.234241e+00	1.233438e+00	1.201303e+00	1.201110e+00	1.200749e+00	1.200027e+00	1.235272e+00	1.208427e+00	1.199496e+00	1.199348e+00	1.241335e+00	1.233506e+00	1.234669e+00	1.233596e+00	1.233579e+00	1.191214e+00	1.196578e+00	1.202076e+00	1.186466e+00	1.229820e+00	1.239210e+00	1.238703e+00	1.237872e+00	1.224634e+00	1.223759e+00	1.238981e+00	1.224877e+00	1.232683e+00	1.232312e+00	1.232456e+00	1.220679e+00	1.240800e+00	1.240439e+00	1.236301e+00	1.241268e+00	1.236552e+00	1.225766e+00	1.224527e+00	1.229767e+00	1.236128e+00	1.197057e+00	1.201467e+00	1.199866e+00	1.240996e+00	1.200047e+00	1.238080e+00	1.233783e+00	1.232075e+00	1.224104e+00	1.225827e+00	1.237055e+00	1.191439e+00	1.236250e+00	1.200171e+00	1.235539e+00	1.241704e+00	1.239880e+00	1.239588e+00	1.208677e+00	1.239164e+00	1.231674e+00	1.231487e+00	1.200951e+00	1.201087e+00	1.235559e+00	1.238135e+00	1.231677e+00	1.235007e+00	1.195693e+00	1.240971e+00	1.236385e+00	1.222156e+00	1.223648e+00	1.234154e+00	1.209134e+00	1.211109e+00	1.205327e+00	1.240776e+00	1.239731e+00	1.224354e+00	1.237568e+00	1.231723e+00	1.240056e+00	1.231819e+00	1.238073e+00	1.231534e+00	1.201205e+00	1.240137e+00	1.201298e+00	1.184030e+00	1.198903e+00	1.231777e+00	1.229662e+00	1.231294e+00	1.231407e+00	1.231585e+00	1.234013e+00	1.215224e+00	1.224252e+00	1.183753e+00	1.225421e+00	1.225522e+00	1.200520e+00	1.226974e+00	1.231192e+00	1.200733e+00	1.196164e+00	1.194153e+00	1.223432e+00	1.200126e+00	1.197884e+00	1.200993e+00	1.200359e+00	1.200596e+00	1.232753e+00	1.199653e+00	1.232981e+00	1.198338e+00	1.234562e+00	1.200094e+00	1.231168e+00	1.240840e+00	1.188864e+00	1.239019e+00	1.197107e+00	1.196554e+00	1.195594e+00	1.231829e+00	1.224477e+00	1.191856e+00	1.214191e+00	1.241189e+00	1.243355e+00	1.192534e+00	1.224488e+00	1.237190e+00	1.223345e+00	1.200334e+00	1.199745e+00	1.199954e+00	1.198882e+00	1.190253e+00	1.194967e+00	1.214333e+00	1.198581e+00	1.210923e+00	1.239095e+00	1.241418e+00	1.198151e+00	1.201103e+00	1.233187e+00	1.197952e+00	1.239490e+00	1.232319e+00	1.236812e+00	1.238456e+00	1.232789e+00	1.233590e+00	1.191586e+00	1.221278e+00	1.196719e+00	1.233530e+00	1.183584e+00	1.205825e+00	1.207612e+00	1.234214e+00	1.238407e+00	1.240051e+00	1.184414e+00	1.233929e+00	1.240376e+00	1.237536e+00	1.225067e+00	1.199014e+00	1.240497e+00	1.231873e+00	1.216511e+00	1.236124e+00	1.240778e+00	1.236495e+00	1.237514e+00	1.237248e+00	1.229062e+00	1.239691e+00	1.234421e+00	1.234588e+00	1.225527e+00	1.223578e+00	1.224285e+00	1.233511e+00	1.238139e+00	1.236870e+00	1.235895e+00	1.217985e+00	1.208880e+00	1.207969e+00	1.211761e+00	1.206699e+00	1.224094e+00	1.228693e+00	1.237805e+00	1.236412e+00	1.235675e+00	1.232309e+00	1.229255e+00	1.228535e+00	1.226886e+00	1.198908e+00	1.231289e+00	1.192534e+00	1.238111e+00	1.189481e+00	1.238016e+00	1.231341e+00	1.205856e+00	1.238044e+00	1.201895e+00	1.240686e+00	1.225614e+00	1.240532e+00	1.240319e+00	1.219802e+00	1.241256e+00	1.240678e+00	1.206924e+00	1.239678e+00	1.210818e+00	1.197732e+00	1.240956e+00	1.237259e+00	1.241987e+00	1.199937e+00	1.240417e+00	1.233522e+00	1.230655e+00	1.199804e+00	1.221092e+00	1.230702e+00	1.236648e+00	1.222225e+00	1.199792e+00	1.199765e+00	1.228154e+00	1.227771e+00	1.198351e+00	1.199345e+00	1.229769e+00	1.230523e+00	1.224509e+00	1.238333e+00	1.224569e+00	1.223544e+00	1.238583e+00	1.230823e+00	1.219819e+00	1.189952e+00	1.196009e+00	1.230667e+00	1.196511e+00	1.240280e+00	1.208501e+00	1.223716e+00	1.234493e+00	1.241900e+00	1.214998e+00	1.231534e+00	1.238530e+00	1.234399e+00	1.224943e+00	1.225060e+00	1.193286e+00	1.191735e+00	1.222994e+00	1.236543e+00	1.225361e+00	1.214665e+00	1.219302e+00	1.231881e+00	1.231236e+00	1.241508e+00	1.231057e+00	1.239926e+00	1.204611e+00	1.225253e+00	1.236301e+00	1.233380e+00	1.201341e+00	1.239281e+00	1.225353e+00	1.224326e+00	1.231323e+00	1.239120e+00	1.238039e+00	1.178452e+00	1.239616e+00	1.232071e+00	1.200049e+00	1.216779e+00	1.238032e+00	1.236896e+00	1.230636e+00	1.242996e+00	1.230677e+00	1.234005e+00	1.200289e+00	1.226052e+00	1.225422e+00	1.226062e+00	1.204718e+00	1.183179e+00	1.184603e+00	1.199275e+00	1.241007e+00	1.238577e+00	1.200299e+00	1.204734e+00	1.24760