# vtk DataFile Version 3.0
vtk output
ASCII
DATASET UNSTRUCTURED_GRID
POINTS 13281 double
8.250000e-01	2.490000e-02	0.0	6.750000e-01	-2.870000e-02	0.0	8.250000e-01	2.410000e-02	0.0	1.078890e+00	-1.341520e-01	0.0	1.073600e+00	-1.423860e-01	0.0	3.000000e+01	0.000000e+00	0.0	0.000000e+00	3.000000e+01	0.0	-3.000000e+01	0.000000e+00	0.0	0.000000e+00	-3.000000e+01	0.0	8.225136e-01	2.515232e-02	0.0	8.200260e-01	2.539252e-02	0.0	8.175378e-01	2.562525e-02	0.0	8.150494e-01	2.585730e-02	0.0	8.125613e-01	2.609165e-02	0.0	8.100736e-01	2.633135e-02	0.0	8.075861e-01	2.657236e-02	0.0	8.050983e-01	2.680983e-02	0.0	8.026098e-01	2.704006e-02	0.0	8.001202e-01	2.725873e-02	0.0	7.976299e-01	2.746874e-02	0.0	7.951395e-01	2.767761e-02	0.0	7.926495e-01	2.789148e-02	0.0	7.901604e-01	2.811515e-02	0.0	7.876726e-01	2.835330e-02	0.0	7.851860e-01	2.860319e-02	0.0	7.826998e-01	2.885676e-02	0.0	7.802132e-01	2.910705e-02	0.0	7.777258e-01	2.934887e-02	0.0	7.752372e-01	2.957879e-02	0.0	7.727477e-01	2.979747e-02	0.0	7.702575e-01	3.000941e-02	0.0	7.677670e-01	3.021649e-02	0.0	7.652761e-01	3.042027e-02	0.0	7.627851e-01	3.062199e-02	0.0	7.602941e-01	3.082274e-02	0.0	7.578030e-01	3.102339e-02	0.0	7.553119e-01	3.122471e-02	0.0	7.528212e-01	3.142976e-02	0.0	7.503311e-01	3.164143e-02	0.0	7.478411e-01	3.185610e-02	0.0	7.453511e-01	3.206905e-02	0.0	7.428606e-01	3.227672e-02	0.0	7.403695e-01	3.247765e-02	0.0	7.378779e-01	3.267186e-02	0.0	7.353859e-01	3.286004e-02	0.0	7.328934e-01	3.304304e-02	0.0	7.304007e-01	3.322165e-02	0.0	7.279077e-01	3.339668e-02	0.0	7.254145e-01	3.356925e-02	0.0	7.229212e-01	3.374009e-02	0.0	7.204278e-01	3.390963e-02	0.0	7.179343e-01	3.407814e-02	0.0	7.154408e-01	3.424580e-02	0.0	7.129472e-01	3.441275e-02	0.0	7.104536e-01	3.457908e-02	0.0	7.079600e-01	3.474488e-02	0.0	7.054663e-01	3.491018e-02	0.0	7.029726e-01	3.507505e-02	0.0	7.004789e-01	3.523952e-02	0.0	6.979851e-01	3.540361e-02	0.0	6.954913e-01	3.556734e-02	0.0	6.929975e-01	3.573075e-02	0.0	6.905037e-01	3.589382e-02	0.0	6.880099e-01	3.605658e-02	0.0	6.855160e-01	3.621902e-02	0.0	6.830221e-01	3.638113e-02	0.0	6.805282e-01	3.654289e-02	0.0	6.780343e-01	3.670427e-02	0.0	6.755403e-01	3.686520e-02	0.0	6.730464e-01	3.702597e-02	0.0	6.705524e-01	3.718730e-02	0.0	6.680585e-01	3.734890e-02	0.0	6.655645e-01	3.750979e-02	0.0	6.630704e-01	3.766751e-02	0.0	6.605758e-01	3.781852e-02	0.0	6.580807e-01	3.796176e-02	0.0	6.555854e-01	3.809963e-02	0.0	6.530899e-01	3.823465e-02	0.0	6.505943e-01	3.836829e-02	0.0	6.480987e-01	3.850119e-02	0.0	6.456031e-01	3.863339e-02	0.0	6.431074e-01	3.876490e-02	0.0	6.406117e-01	3.889573e-02	0.0	6.381159e-01	3.902586e-02	0.0	6.356201e-01	3.915530e-02	0.0	6.331243e-01	3.928401e-02	0.0	6.306284e-01	3.941197e-02	0.0	6.281325e-01	3.953916e-02	0.0	6.256365e-01	3.966553e-02	0.0	6.231406e-01	3.979105e-02	0.0	6.206445e-01	3.991565e-02	0.0	6.181484e-01	4.003928e-02	0.0	6.156523e-01	4.016186e-02	0.0	6.131561e-01	4.028332e-02	0.0	6.106598e-01	4.040356e-02	0.0	6.081635e-01	4.052246e-02	0.0	6.056671e-01	4.063988e-02	0.0	6.031707e-01	4.075566e-02	0.0	6.006741e-01	4.086959e-02	0.0	5.981775e-01	4.098194e-02	0.0	5.956808e-01	4.109386e-02	0.0	5.931842e-01	4.120528e-02	0.0	5.906875e-01	4.131604e-02	0.0	5.881908e-01	4.142599e-02	0.0	5.856940e-01	4.153499e-02	0.0	5.831972e-01	4.164289e-02	0.0	5.807003e-01	4.174954e-02	0.0	5.782034e-01	4.185478e-02	0.0	5.757064e-01	4.195847e-02	0.0	5.732093e-01	4.206046e-02	0.0	5.707122e-01	4.216060e-02	0.0	5.682149e-01	4.225874e-02	0.0	5.657176e-01	4.235473e-02	0.0	5.632202e-01	4.244843e-02	0.0	5.607228e-01	4.253967e-02	0.0	5.582252e-01	4.262832e-02	0.0	5.557275e-01	4.271422e-02	0.0	5.532297e-01	4.279722e-02	0.0	5.507319e-01	4.287717e-02	0.0	5.482339e-01	4.295335e-02	0.0	5.457357e-01	4.302426e-02	0.0	5.432375e-01	4.309033e-02	0.0	5.407391e-01	4.315208e-02	0.0	5.382406e-01	4.321004e-02	0.0	5.357421e-01	4.326471e-02	0.0	5.332434e-01	4.331664e-02	0.0	5.307448e-01	4.336634e-02	0.0	5.282461e-01	4.341433e-02	0.0	5.257474e-01	4.346115e-02	0.0	5.232487e-01	4.350731e-02	0.0	5.207499e-01	4.355333e-02	0.0	5.182512e-01	4.359975e-02	0.0	5.157525e-01	4.364709e-02	0.0	5.132539e-01	4.369586e-02	0.0	5.107552e-01	4.374660e-02	0.0	5.082566e-01	4.379982e-02	0.0	5.057581e-01	4.385606e-02	0.0	5.032597e-01	4.391583e-02	0.0	5.007614e-01	4.397966e-02	0.0	4.982631e-01	4.404807e-02	0.0	4.957651e-01	4.412106e-02	0.0	4.932671e-01	4.419809e-02	0.0	4.907692e-01	4.427859e-02	0.0	4.882715e-01	4.436201e-02	0.0	4.857738e-01	4.444779e-02	0.0	4.832762e-01	4.453535e-02	0.0	4.807786e-01	4.462415e-02	0.0	4.782811e-01	4.471362e-02	0.0	4.757835e-01	4.480321e-02	0.0	4.732860e-01	4.489235e-02	0.0	4.707884e-01	4.498048e-02	0.0	4.682907e-01	4.506704e-02	0.0	4.657930e-01	4.515148e-02	0.0	4.632952e-01	4.523322e-02	0.0	4.607973e-01	4.531172e-02	0.0	4.582993e-01	4.538641e-02	0.0	4.558011e-01	4.545672e-02	0.0	4.533028e-01	4.552210e-02	0.0	4.508044e-01	4.558198e-02	0.0	4.483058e-01	4.563631e-02	0.0	4.458072e-01	4.568647e-02	0.0	4.433085e-01	4.573283e-02	0.0	4.408097e-01	4.577564e-02	0.0	4.383108e-01	4.581518e-02	0.0	4.358120e-01	4.585169e-02	0.0	4.333130e-01	4.588545e-02	0.0	4.308141e-01	4.591671e-02	0.0	4.283151e-01	4.594574e-02	0.0	4.258161e-01	4.597280e-02	0.0	4.233171e-01	4.599815e-02	0.0	4.208180e-01	4.602205e-02	0.0	4.183190e-01	4.604476e-02	0.0	4.158199e-01	4.606656e-02	0.0	4.133209e-01	4.608769e-02	0.0	4.108218e-01	4.610842e-02	0.0	4.083228e-01	4.612902e-02	0.0	4.058237e-01	4.614975e-02	0.0	4.033246e-01	4.617086e-02	0.0	4.008256e-01	4.619262e-02	0.0	3.983265e-01	4.621500e-02	0.0	3.958275e-01	4.623715e-02	0.0	3.933284e-01	4.625892e-02	0.0	3.908294e-01	4.628024e-02	0.0	3.883303e-01	4.630103e-02	0.0	3.858312e-01	4.632123e-02	0.0	3.833322e-01	4.634075e-02	0.0	3.808331e-01	4.635952e-02	0.0	3.783340e-01	4.637747e-02	0.0	3.758349e-01	4.639452e-02	0.0	3.733358e-01	4.641059e-02	0.0	3.708367e-01	4.642562e-02	0.0	3.683376e-01	4.643952e-02	0.0	3.658385e-01	4.645222e-02	0.0	3.633394e-01	4.646365e-02	0.0	3.608402e-01	4.647373e-02	0.0	3.583411e-01	4.648238e-02	0.0	3.558420e-01	4.648954e-02	0.0	3.533428e-01	4.649512e-02	0.0	3.508437e-01	4.649906e-02	0.0	3.483445e-01	4.650138e-02	0.0	3.458454e-01	4.650243e-02	0.0	3.433462e-01	4.650223e-02	0.0	3.408471e-01	4.650078e-02	0.0	3.383479e-01	4.649807e-02	0.0	3.358488e-01	4.649413e-02	0.0	3.333496e-01	4.648893e-02	0.0	3.308505e-01	4.648248e-02	0.0	3.283514e-01	4.647478e-02	0.0	3.258522e-01	4.646584e-02	0.0	3.233531e-01	4.645564e-02	0.0	3.208540e-01	4.644420e-02	0.0	3.183549e-01	4.643150e-02	0.0	3.158558e-01	4.641756e-02	0.0	3.133567e-01	4.640237e-02	0.0	3.108576e-01	4.638593e-02	0.0	3.083585e-01	4.636824e-02	0.0	3.058594e-01	4.634930e-02	0.0	3.033603e-01	4.632911e-02	0.0	3.008613e-01	4.630768e-02	0.0	2.983622e-01	4.628515e-02	0.0	2.958632e-01	4.626200e-02	0.0	2.933641e-01	4.623817e-02	0.0	2.908651e-01	4.621353e-02	0.0	2.883661e-01	4.618799e-02	0.0	2.858671e-01	4.616143e-02	0.0	2.833681e-01	4.613373e-02	0.0	2.808691e-01	4.610478e-02	0.0	2.783702e-01	4.607447e-02	0.0	2.758712e-01	4.604270e-02	0.0	2.733723e-01	4.600933e-02	0.0	2.708734e-01	4.597427e-02	0.0	2.683745e-01	4.593741e-02	0.0	2.658757e-01	4.589862e-02	0.0	2.633768e-01	4.585780e-02	0.0	2.608781e-01	4.581483e-02	0.0	2.583793e-01	4.576960e-02	0.0	2.558806e-01	4.572201e-02	0.0	2.533820e-01	4.567193e-02	0.0	2.508834e-01	4.561926e-02	0.0	2.483848e-01	4.556415e-02	0.0	2.458863e-01	4.550741e-02	0.0	2.433879e-01	4.544906e-02	0.0	2.408894e-01	4.538900e-02	0.0	2.383911e-01	4.532718e-02	0.0	2.358927e-01	4.526351e-02	0.0	2.333944e-01	4.519792e-02	0.0	2.308962e-01	4.513034e-02	0.0	2.283980e-01	4.506069e-02	0.0	2.258999e-01	4.498890e-02	0.0	2.234018e-01	4.491489e-02	0.0	2.209039e-01	4.483859e-02	0.0	2.184060e-01	4.475992e-02	0.0	2.159081e-01	4.467881e-02	0.0	2.134104e-01	4.459518e-02	0.0	2.109127e-01	4.450897e-02	0.0	2.084151e-01	4.442009e-02	0.0	2.059177e-01	4.432847e-02	0.0	2.034203e-01	4.423404e-02	0.0	2.009231e-01	4.413672e-02	0.0	1.984259e-01	4.403650e-02	0.0	1.959289e-01	4.393359e-02	0.0	1.934320e-01	4.382811e-02	0.0	1.909352e-01	4.372013e-02	0.0	1.884384e-01	4.360972e-02	0.0	1.859418e-01	4.349693e-02	0.0	1.834453e-01	4.338178e-02	0.0	1.809490e-01	4.326430e-02	0.0	1.784527e-01	4.314449e-02	0.0	1.759565e-01	4.302235e-02	0.0	1.734605e-01	4.289786e-02	0.0	1.709646e-01	4.277100e-02	0.0	1.684687e-01	4.264170e-02	0.0	1.659731e-01	4.250992e-02	0.0	1.634775e-01	4.237557e-02	0.0	1.609822e-01	4.223856e-02	0.0	1.584869e-01	4.209876e-02	0.0	1.559918e-01	4.195602e-02	0.0	1.534970e-01	4.181016e-02	0.0	1.510023e-01	4.166095e-02	0.0	1.485078e-01	4.150830e-02	0.0	1.460135e-01	4.135261e-02	0.0	1.435194e-01	4.119369e-02	0.0	1.410255e-01	4.103126e-02	0.0	1.385319e-01	4.086503e-02	0.0	1.360386e-01	4.069471e-02	0.0	1.335456e-01	4.052000e-02	0.0	1.310529e-01	4.034059e-02	0.0	1.285605e-01	4.015619e-02	0.0	1.260686e-01	3.996653e-02	0.0	1.235771e-01	3.977132e-02	0.0	1.210860e-01	3.957032e-02	0.0	1.185954e-01	3.936331e-02	0.0	1.161054e-01	3.915010e-02	0.0	1.136159e-01	3.893054e-02	0.0	1.111270e-01	3.870451e-02	0.0	1.086387e-01	3.847177e-02	0.0	1.061512e-01	3.823146e-02	0.0	1.036643e-01	3.798369e-02	0.0	1.011782e-01	3.772865e-02	0.0	9.869287e-02	3.746648e-02	0.0	9.620826e-02	3.719729e-02	0.0	9.372442e-02	3.692112e-02	0.0	9.124136e-02	3.663798e-02	0.0	8.875912e-02	3.634781e-02	0.0	8.627772e-02	3.605050e-02	0.0	8.379721e-02	3.574585e-02	0.0	8.131764e-02	3.543360e-02	0.0	7.883910e-02	3.511337e-02	0.0	7.636167e-02	3.478463e-02	0.0	7.388555e-02	3.444616e-02	0.0	7.141140e-02	3.409353e-02	0.0	6.893949e-02	3.372563e-02	0.0	6.646993e-02	3.334223e-02	0.0	6.400283e-02	3.294327e-02	0.0	6.153828e-02	3.252889e-02	0.0	5.907630e-02	3.209950e-02	0.0	5.661685e-02	3.165585e-02	0.0	5.415979e-02	3.119911e-02	0.0	5.170489e-02	3.073094e-02	0.0	4.925167e-02	3.025400e-02	0.0	4.679885e-02	2.977507e-02	0.0	4.434779e-02	2.928717e-02	0.0	4.190165e-02	2.877527e-02	0.0	3.946460e-02	2.822178e-02	0.0	3.704086e-02	2.761278e-02	0.0	3.463302e-02	2.694363e-02	0.0	3.224133e-02	2.621885e-02	0.0	2.986710e-02	2.543878e-02	0.0	2.750733e-02	2.461591e-02	0.0	2.515848e-02	2.376234e-02	0.0	2.281
[...]
POINT_DATA 13281

SCALARS Density double 1
LOOKUP_TABLE default
1.191849e+00	1.014543e+00	1.294572e+00	1.068841e+00	1.115588e+00	1.224978e+00	1.224978e+00	1.224978e+00	1.224978e+00	1.217055e+00	1.206685e+00	1.200728e+00	1.197451e+00	1.194896e+00	1.193366e+00	1.192512e+00	1.192079e+00	1.192335e+00	1.193175e+00	1.193974e+00	1.194437e+00	1.194709e+00	1.194294e+00	1.193362e+00	1.192511e+00	1.192145e+00	1.192125e+00	1.192413e+00	1.192997e+00	1.193433e+00	1.193822e+00	1.194323e+00	1.195006e+00	1.195634e+00	1.196139e+00	1.196501e+00	1.196628e+00	1.196498e+00	1.196159e+00	1.196063e+00	1.196245e+00	1.196656e+00	1.197168e+00	1.197805e+00	1.198356e+00	1.198957e+00	1.199606e+00	1.200134e+00	1.200478e+00	1.200699e+00	1.200834e+00	1.200910e+00	1.201044e+00	1.201090e+00	1.201312e+00	1.201776e+00	1.201937e+00	1.202019e+00	1.201946e+00	1.201834e+00	1.201695e+00	1.201910e+00	1.202082e+00	1.201968e+00	1.201722e+00	1.201845e+00	1.202167e+00	1.202515e+00	1.202798e+00	1.203019e+00	1.203128e+00	1.203184e+00	1.203243e+00	1.203459e+00	1.203938e+00	1.204517e+00	1.205020e+00	1.205437e+00	1.205788e+00	1.206022e+00	1.206197e+00	1.206407e+00	1.206525e+00	1.206625e+00	1.206692e+00	1.206726e+00	1.206777e+00	1.206816e+00	1.206902e+00	1.207165e+00	1.207583e+00	1.207840e+00	1.208065e+00	1.208209e+00	1.208298e+00	1.208398e+00	1.208529e+00	1.208696e+00	1.208934e+00	1.209126e+00	1.209243e+00	1.209355e+00	1.209475e+00	1.209672e+00	1.209787e+00	1.209981e+00	1.210181e+00	1.210383e+00	1.210653e+00	1.210950e+00	1.211263e+00	1.211605e+00	1.211952e+00	1.212318e+00	1.212661e+00	1.213012e+00	1.213283e+00	1.213581e+00	1.213932e+00	1.214401e+00	1.214892e+00	1.215405e+00	1.215922e+00	1.216385e+00	1.216767e+00	1.217072e+00	1.217324e+00	1.217524e+00	1.217660e+00	1.217762e+00	1.217786e+00	1.217691e+00	1.217538e+00	1.217339e+00	1.217094e+00	1.216827e+00	1.216518e+00	1.216177e+00	1.215795e+00	1.215403e+00	1.214985e+00	1.214562e+00	1.214164e+00	1.213822e+00	1.213524e+00	1.213348e+00	1.213237e+00	1.213178e+00	1.213181e+00	1.213272e+00	1.213453e+00	1.213682e+00	1.213978e+00	1.214305e+00	1.214684e+00	1.215107e+00	1.215565e+00	1.216076e+00	1.216623e+00	1.217184e+00	1.217713e+00	1.218250e+00	1.218789e+00	1.219247e+00	1.219572e+00	1.219929e+00	1.220272e+00	1.220582e+00	1.220820e+00	1.221062e+00	1.221302e+00	1.221521e+00	1.221691e+00	1.221820e+00	1.221910e+00	1.221971e+00	1.222014e+00	1.222022e+00	1.222020e+00	1.222038e+00	1.222093e+00	1.222133e+00	1.222180e+00	1.222235e+00	1.222305e+00	1.222398e+00	1.222507e+00	1.222628e+00	1.222759e+00	1.222898e+00	1.223037e+00	1.223190e+00	1.223333e+00	1.223504e+00	1.223683e+00	1.223873e+00	1.224076e+00	1.224276e+00	1.224487e+00	1.224683e+00	1.224880e+00	1.225070e+00	1.225256e+00	1.225437e+00	1.225616e+00	1.225791e+00	1.225963e+00	1.226135e+00	1.226315e+00	1.226489e+00	1.226659e+00	1.226841e+00	1.227017e+00	1.227179e+00	1.227350e+00	1.227531e+00	1.227710e+00	1.227895e+00	1.228071e+00	1.228255e+00	1.228415e+00	1.228532e+00	1.228659e+00	1.228810e+00	1.228971e+00	1.229157e+00	1.229377e+00	1.229583e+00	1.229770e+00	1.229971e+00	1.230193e+00	1.230456e+00	1.230729e+00	1.230977e+00	1.231264e+00	1.231573e+00	1.231863e+00	1.232158e+00	1.232510e+00	1.232869e+00	1.233187e+00	1.233376e+00	1.233519e+00	1.233891e+00	1.234230e+00	1.234556e+00	1.234809e+00	1.235046e+00	1.235338e+00	1.235625e+00	1.235967e+00	1.236361e+00	1.236755e+00	1.237093e+00	1.237416e+00	1.237733e+00	1.238022e+00	1.238306e+00	1.238629e+00	1.239011e+00	1.239445e+00	1.239848e+00	1.240293e+00	1.240753e+00	1.241202e+00	1.241565e+00	1.241900e+00	1.242221e+00	1.242530e+00	1.242857e+00	1.243210e+00	1.243559e+00	1.243910e+00	1.244302e+00	1.244704e+00	1.245161e+00	1.245707e+00	1.246239e+00	1.246657e+00	1.247100e+00	1.247531e+00	1.247977e+00	1.248461e+00	1.249001e+00	1.249564e+00	1.250175e+00	1.250864e+00	1.251566e+00	1.252318e+00	1.253124e+00	1.253877e+00	1.254677e+00	1.255530e+00	1.256508e+00	1.257666e+00	1.258731e+00	1.259801e+00	1.260933e+00	1.262151e+00	1.263361e+00	1.264441e+00	1.265295e+00	1.266196e+00	1.267140e+00	1.268133e+00	1.269173e+00	1.270333e+00	1.271483e+00	1.272708e+00	1.274171e+00	1.275943e+00	1.277800e+00	1.279891e+00	1.282155e+00	1.284615e+00	1.287152e+00	1.289795e+00	1.292597e+00	1.295449e+00	1.297817e+00	1.299562e+00	1.300894e+00	1.302750e+00	1.305606e+00	1.310536e+00	1.315913e+00	1.321362e+00	1.327238e+00	1.333313e+00	1.339020e+00	1.342682e+00	1.344967e+00	1.345505e+00	1.344528e+00	1.339176e+00	1.338503e+00	1.358625e+00	1.372541e+00	1.380701e+00	1.393969e+00	1.405307e+00	1.416839e+00	1.418274e+00	1.422059e+00	1.424518e+00	1.416534e+00	1.416650e+00	1.407965e+00	1.398743e+00	1.386990e+00	1.372186e+00	1.359655e+00	1.352536e+00	1.345586e+00	1.340244e+00	1.334969e+00	1.330709e+00	1.327191e+00	1.325498e+00	1.323147e+00	1.320341e+00	1.317906e+00	1.315296e+00	1.313334e+00	1.310809e+00	1.307821e+00	1.304640e+00	1.301596e+00	1.299065e+00	1.296674e+00	1.294773e+00	1.292815e+00	1.290536e+00	1.288225e+00	1.285949e+00	1.283465e+00	1.280851e+00	1.278571e+00	1.276726e+00	1.275425e+00	1.274268e+00	1.272828e+00	1.271132e+00	1.269675e+00	1.268442e+00	1.267287e+00	1.266023e+00	1.264684e+00	1.263189e+00	1.262514e+00	1.261908e+00	1.261100e+00	1.260113e+00	1.258774e+00	1.257544e+00	1.256644e+00	1.255859e+00	1.255021e+00	1.254113e+00	1.253234e+00	1.252400e+00	1.251637e+00	1.250959e+00	1.250327e+00	1.249705e+00	1.249183e+00	1.248676e+00	1.248230e+00	1.247779e+00	1.247309e+00	1.246706e+00	1.245992e+00	1.245448e+00	1.245047e+00	1.244730e+00	1.244279e+00	1.243884e+00	1.243481e+00	1.243142e+00	1.242787e+00	1.242486e+00	1.242170e+00	1.241859e+00	1.241617e+00	1.241299e+00	1.240978e+00	1.240371e+00	1.239917e+00	1.239614e+00	1.239272e+00	1.238868e+00	1.238537e+00	1.238231e+00	1.237860e+00	1.237433e+00	1.236999e+00	1.236633e+00	1.236300e+00	1.235949e+00	1.235618e+00	1.235300e+00	1.234991e+00	1.234698e+00	1.234400e+00	1.234120e+00	1.233857e+00	1.233616e+00	1.233370e+00	1.233115e+00	1.232829e+00	1.232523e+00	1.232187e+00	1.231873e+00	1.231573e+00	1.231255e+00	1.230946e+00	1.230662e+00	1.230391e+00	1.230132e+00	1.229892e+00	1.229666e+00	1.229467e+00	1.229287e+00	1.229121e+00	1.228962e+00	1.228814e+00	1.228658e+00	1.228505e+00	1.228368e+00	1.228225e+00	1.228066e+00	1.227870e+00	1.227695e+00	1.227522e+00	1.227348e+00	1.227181e+00	1.227020e+00	1.226848e+00	1.226669e+00	1.226488e+00	1.226306e+00	1.226137e+00	1.225961e+00	1.225789e+00	1.225620e+00	1.225436e+00	1.225258e+00	1.225064e+00	1.224873e+00	1.224692e+00	1.224502e+00	1.224311e+00	1.224122e+00	1.223955e+00	1.223786e+00	1.223609e+00	1.223437e+00	1.223287e+00	1.223121e+00	1.222952e+00	1.222759e+00	1.222608e+00	1.222467e+00	1.222328e+00	1.222196e+00	1.222059e+00	1.221924e+00	1.221761e+00	1.221645e+00	1.221529e+00	1.221423e+00	1.221294e+00	1.221164e+00	1.221026e+00	1.220881e+00	1.220750e+00	1.220602e+00	1.220436e+00	1.220292e+00	1.220145e+00	1.220019e+00	1.219898e+00	1.219754e+00	1.219598e+00	1.219440e+00	1.219257e+00	1.219029e+00	1.218768e+00	1.218565e+00	1.218441e+00	1.218327e+00	1.218232e+00	1.218101e+00	1.217973e+00	1.217807e+00	1.217611e+00	1.217406e+00	1.217190e+00	1.217022e+00	1.216827e+00	1.216597e+00	1.216327e+00	1.216000e+00	1.215693e+00	1.215490e+00	1.215256e+00	1.214921e+00	1.214659e+00	1.214438e+00	1.214208e+00	1.214028e+00	1.213850e+00	1.213617e+00	1.213399e+00	1.213160e+00	1.212940e+00	1.212653e+00	1.212239e+00	1.211677e+00	1.211168e+00	1.210681e+00	1.210313e+00	1.210002e+00	1.209582e+00	1.209160e+00	1.208680e+00	1.208228e+00	1.207777e+00	1.207329e+00	1.206888e+00	1.206545e+00	1.206313e+00	1.205894e+00	1.205261e+00	1.204710e+00	1.204300e+00	1.203784e+00	1.203097e+00	1.202281e+00	1.201734e+00	1.201328e+00	1.200752e+00	1.200076e+00	1.199291e+00	1.198349e+00	1.197293e+00	1.196323e+00	1.195434e+00	1.194337e+00	1.193339e+00	1.192440e+00	1.191611e+00	1.190871e+00	1.190111e+00	1.189274e+00	1.188387e+00	1.187675e+00	1.186752e+00	1.185408e+00	1.184777e+00	1.184351e+00	1.184127e+00	1.183707e+00	1.183085e+00	1.182160e+00	1.181051e+00	1.179992e+00	1.179015e+00	1.177761e+00	1.176289e+00	1.174330e+00	1.171778e+00	1.168898e+00	1.165992e+00	1.162482e+00	1.158198e+00	1.153515e+00	1.148066e+00	1.140899e+00	1.132114e+00	9.278053e-01	9.332857e-01	9.374280e-01	9.247500e-01	9.128428e-01	9.060199e-01	9.022180e-01	9.049033e-01	9.100517e-01	9.182415e-01	9.275832e-01	9.402597e-01	9.521207e-01	9.649747e-01	9.787451e-01	9.911965e-01	1.004660e+00	1.018454e+00	1.032640e+00	1.044008e+00	1.053748e+00	1.063305e+00	1.072312e+00	1.080359e+00	1.087794e+00	1.095398e+00	1.102180e+00	1.108709e+00	1.116194e+00	1.123340e+00	1.129796e+00	1.135734e+00	1.141365e+00	1.147242e+00	1.152915e+00	1.158042e+00	1.162654e+00	1.166886e+00	1.170820e+00	1.174714e+00	1.178144e+00	1.181174e+00	1.185282e+00	1.190229e+00	1.194377e+00	1.197518e+00	1.200166e+00	1.202721e+00	1.205017e+00	1.207070e+00	1.209477e+00	1.212511e+00	1.215293e+00	1.217425e+00	1.219057e+00	1.220271e+00	1.221902e+00	1.224846e+00	1.228755e+00	1.233460e+00	1.240299e+00	1.248906e+00	1.259263e+00	1.272925e+00	1.293018e+00	1.312854e+00	1.335682e+00	1.349619e+00	1.358335e+00	1.361420e+00	1.224978e+00	1.224978e+00	1.224978e+00	1.224978e+00	1.224978e+00	1.224978e+00	1.224978e+00	1.224978e+00	1.224978e+00	1.224978e+00	1.224978e+00	1.224978e+00	1.224978e+00	1.224978e+00	1.224978e+00	1.224978e+00	1.224978e+00	1.224978e+00	1.224978e+00	1.224978e+00	1.224978e+00	1.224978e+00	1.224978e+00	1.224978e+00	1.224978e+00	1.224978e+00	1.224978e+00	1.224978e+00	1.224978e+00	1.224978e+00	1.224978e+00	1.224978e+00	1.224978e+00	1.224978e+00	1.224978e+00	1.224978e+00	1.224978e+00	1.224978e+00	1.224978e+00	1.224978e+00	1.224978e+00	1.224978e+00	1.224978e+00	1.224978e+00	1.224978e+00	1.224978e+00	1.224978e+00	1.224978e+00	1.224978e+00	1.224978e+00	1.224978e+00	1.224978e+00	1.224978e+00	1.224978e+00	1.224978e+00	1.224978e+00	1.224978e+00	1.224978e+00	1.224978e+00	1.224978e+00	1.076227e+00	1.064700e+00	1.047016e+00	1.028004e+00	1.019083e+00	1.013516e+00	1.010688e+00	1.006035e+00	1.001957e+00	1.000187e+00	9.993052e-01	9.996905e-01	9.995063e-01	1.000183e+00	1.000658e+00	1.001478e+00	1.001891e+00	1.002082e+00	1.002206e+00	1.002667e+00	1.002678e+00	1.002595e+00	1.003037e+00	1.004510e+00	1.005060e+00	1.007623e+00	1.009900e+00	1.012390e+00	1.015861e+00	1.019339e+00	1.022254e+00	1.023632e+00	1.026171e+00	1.028749e+00	1.031656e+00	1.034640e+00	1.037782e+00	1.043032e+00	1.047555e+00	1.053974e+00	1.059671e+00	1.064577e+00	1.069806e+00	1.073794e+00	1.077641e+00	1.082516e+00	1.087579e+00	1.092939e+00	1.098179e+00	1.102276e+00	1.107119e+00	1.112758e+00	1.119500e+00	1.126044e+00	1.133560e+00	1.140554e+00	1.147823e+00	1.154959e+00	1.163949e+00	1.174588e+00	1.184744e+00	1.192680e+00	1.201898e+00	1.214185e+00	1.222188e+00	1.235163e+00	1.259655e+00	1.289830e+00	1.327211e+00	1.364792e+00	1.387250e+00	1.373166e+00	1.325536e+00	1.330141e+00	1.343637e+00	1.351154e+00	1.356322e+00	1.359066e+00	1.361351e+00	1.362494e+00	1.363692e+00	1.364866e+00	1.367517e+00	1.369659e+00	1.371730e+00	1.373247e+00	1.374909e+00	1.376185e+00	1.377569e+00	1.378616e+00	1.379465e+00	1.379904e+00	1.379163e+00	1.376450e+00	1.379828e+00	1.381238e+00	1.380980e+00	1.380806e+00	1.381482e+00	1.385649e+00	1.386579e+00	1.386848e+00	1.387107e+00	1.386982e+00	1.386013e+00	1.382891e+00	1.387591e+00	1.391165e+00	1.391821e+00	1.391601e+00	1.391932e+00	1.395617e+00	1.395470e+00	1.394153e+00	1.393520e+00	1.393392e+00	1.395035e+00	1.396435e+00	1.399693e+00	1.400496e+00	1.399956e+00	1.400504e+00	1.401349e+00	1.402981e+00	1.404917e+00	1.405176e+00	1.404955e+00	1.405571e+00	1.406599e+00	1.407262e+00	1.409561e+00	1.412810e+00	1.417892e+00	1.419146e+00	1.417538e+00	1.413337e+00	1.418543e+00	1.420917e+00	1.421023e+00	1.421903e+00	1.424194e+00	1.425411e+00	1.427102e+00	1.428034e+00	1.429610e+00	1.430266e+00	1.431708e+00	1.431972e+00	1.432420e+00	1.432774e+00	1.434792e+00	1.437849e+00	1.439808e+00	1.442430e+00	1.444495e+00	1.447718e+00	1.450826e+00	1.452399e+00	1.453808e+00	1.454805e+00	1.457584e+00	1.457900e+00	1.456033e+00	1.454081e+00	1.450561e+00	1.443580e+00	1.432876e+00	1.418013e+00	1.395449e+00	1.368356e+00	1.329994e+00	9.888297e-01	1.063238e+00	1.224978e+00	1.224978e+00	1.224978e+00	1.224978e+00	1.224978e+00	1.224978e+00	1.224978e+00	1.224978e+00	1.224978e+00	1.224977e+00	1.224978e+00	1.225017e+00	1.224918e+00	1.224978e+00	1.224978e+00	1.224823e+00	1.224978e+00	1.224977e+00	1.221934e+00	1.224970e+00	1.224978e+00	1.224998e+00	1.224897e+00	1.225041e+00	1.224978e+00	1.225019e+00	1.223027e+00	1.224961e+00	1.224944e+00	1.224971e+00	1.224987e+00	1.224978e+00	1.220837e+00	1.224978e+00	1.224981e+00	1.224976e+00	1.224983e+00	1.219413e+00	1.224978e+00	1.225037e+00	1.225014e+00	1.224982e+00	1.225331e+00	1.224968e+00	1.224978e+00	1.225272e+00	1.224978e+00	1.225045e+00	1.227181e+00	1.224631e+00	1.225008e+00	1.180611e+00	1.225377e+00	1.226238e+00	1.224798e+00	1.225332e+00	1.225216e+00	1.226002e+00	1.224700e+00	1.224918e+00	1.224943e+00	1.224988e+00	1.225047e+00	1.224769e+00	1.227343e+00	1.224748e+00	1.226591e+00	1.200187e+00	1.224978e+00	1.224978e+00	1.232705e+00	1.225432e+00	1.227316e+00	1.228540e+00	1.224978e+00	1.210264e+00	1.224787e+00	1.224969e+00	1.224978e+00	1.223957e+00	1.230720e+00	1.235391e+00	1.225241e+00	1.233076e+00	1.235653e+00	1.233868e+00	1.219804e+00	1.222213e+00	1.224917e+00	1.225736e+00	1.226479e+00	1.225040e+00	1.225226e+00	1.225680e+00	1.226520e+00	1.228247e+00	1.219390e+00	1.224888e+00	1.151749e+00	1.219505e+00	1.204355e+00	1.234153e+00	1.224978e+00	1.224976e+00	1.236505e+00	1.222373e+00	1.222604e+00	1.222570e+00	1.224130e+00	1.224380e+00	1.224475e+00	1.224433e+00	1.222418e+00	1.223421e+00	1.247457e+00	1.224208e+00	1.224956e+00	1.228331e+00	1.231411e+00	1.240301e+00	1.224978e+00	1.191172e+00	1.224978e+00	1.237984e+00	1.224978e+00	1.224978e+00	1.224978e+00	1.223716e+00	1.220597e+00	1.252722e+00	1.222504e+00	1.224981e+00	1.258819e+00	1.224978e+00	1.184704e+00	1.224406e+00	1.224647e+00	1.219690e+00	1.225450e+00	1.226295e+00	1.227112e+00	1.212688e+00	1.215155e+00	1.222915e+00	1.223757e+00	1.224613e+00	1.273295e+00	1.244230e+00	1.254955e+00	1.156519e+00	1.220977e+00	1.228692e+00	1.229997e+00	1.240297e+00	1.259067e+00	1.253615e+00	1.223361e+00	1.217375e+00	1.220021e+00	1.221907e+00	1.224549e+00	1.224871e+00	1.224979e+00	1.224978e+00	1.221865e+00	1.222088e+00	1.232260e+00	1.234933e+00	1.238128e+00	1.212355e+00	1.225043e+00	1.225190e+00	1.224978e+00	1.223587e+00	1.217623e+00	1.293815e+00	1.301327e+00	1.224682e+00	1.224978e+00	1.248335e+00	1.256401e+00	1.224896e+00	1.224978e+00	1.217387e+00	1.225916e+00	1.226480e+00	1.227675e+00	1.228109e+00	1.224978e+00	1.224978e+00	1.233985e+00	1.224994e+00	1.230120e+00	1.231742e+00	1.217783e+00	1.224978e+00	1.218477e+00	1.151179e+00	1.224976e+00	1.216678e+00	1.189582e+00	1.222383e+00	1.224485e+00	1.277189e+00	1.173536e+00	1.221673e+00	1.224975e+00	1.214646e+00	1.215651e+00	1.224978e+00	1.309204e+00	1.260656e+00	1.225648e+00	1.224951e+00	1.240769e+00	1.279767e+00	1.282286e+00	1.234642e+00	1.224978e+00	1.221232e+00	1.225580e+00	1.205791e+00	1.209801e+00	1.273577e+00	1.220200e+00	1.223038e+00	1.216898e+00	1.110741e+00	1.224978e+00	1.250441e+00	1.224978e+00	1.226301e+00	1.227094e+00	1.216987e+00	1.211148e+00	1.224984e+00	1.220386e+00	1.296536e+00	1.301485e+00	1.141897e+00	1.116500e+00	1.225116e+00	1.224978e+00	1.224978e+00	1.224978e+00	1.224978e+00	1.212774e+00	1.224126e+00	1.223854e+00	1.190774e+00	1.195232e+00	1.265458e+00	1.223419e+00	1.223731e+00	1.224978e+00	1.224984e+00	1.224978e+00	1.225474e+00	1.228351e+00	1.224978e+00	1.210374e+00	1.221778e+00	1.224978e+00	1.224978e+00	1.224966e+00	1.224675e+00	1.314841e+00	1.224978e+00	1.225000e+00	1.224978e+00	1.224975e+00	1.224978e+00	1.224563e+00	1.312864e+00	1.219781e+00	1.224978e+00	1.197948e+00	1.180541e+00	1.224977e+00	1.263848e+00	1.199589e+00	1.224999e+00	1.285733e+00	1.224978e+00	1.216702e+00	1.112947e+00	1.287324e+00	1.222187e+00	1.296890e+00	1.187159e+00	1.216188e+00	1.217646e+00	1.220610e+00	1.214115e+00	1.224921e+00	1.230999e+00	1.225669e+00	1.224373e+00	1.333296e+00	1.225807e+00	1.220544e+00	1.233469e+00	1.224979e+00	1.224978e+00	1.224961e+00	1.224952e+00	1.225255e+00	1.224997e+00	1.224978e+00	1.307920e+00	1.311543e+00	1.214207e+00	1.224978e+00	1.208573e+00	1.205270e+00	1.224979e+00	1.229898e+00	1.222940e+00	1.225579e+00	1.224976e+00	1.224975e+00	1.035844e+00	1.042040e+00	1.223571e+00	1.224978e+00	1.148005e+00	1.105381e+00	1.228520e+00	1.230699e+00	1.218632e+00	1.231938e+00	1.349223e+00	1.224978e+00	1.166386e+00	1.235685e+00	1.334106e+00	1.199266e+00	1.240576e+00	1.224816e+00	1.217964e+00	1.232752e+00	1.071745e+00	1.245437e+00	1.218778e+00	1.224978e+00	1.226943e+00	1.224978e+00	1.224978e+00	1.311937e+00	1.224978e+00	1.246498e+00	1.224978e+00	1.240961e+00	1.344929e+00	1.224977e+00	1.280088e+00	1.218989e+00	1.210586e+00	1.209057e+00	1.217973e+00	1.224979e+00	1.225025e+00	1.311326e+00	1.219270e+00	1.224978e+00	1.224978e+00	1.207923e+00	1.224978e+00	1.224980e+00	1.224901e+00	1.224897e+00	1.228411e+00	1.224977e+00	1.210389e+00	1.224976e+00	1.224978e+00	1.255583e+00	1.223993e+00	1.371626e+00	1.205421e+00	1.224965e+00	1.209981e+00	1.224980e+00	1.225383e+00	1.224978e+00	1.114681e+00	1.228946e+00	1.224834e+00	1.234859e+00	1.309982e+00	1.328192e+00	1.228071e+00	1.268988e+00	1.220732e+00	1.218565e+00	1.224979e+00	1.209180e+00	1.223388e+00	1.224871e+00	1.223808e+00	1.225018e+00	1.180960e+00	1.214284e+00	1.215620e+00	1.218092e+00	1.224978e+00	1.226628e+00	1.224531e+00	1.229218e+00	1.226469e+00	1.224978e+00	1.225108e+00	1.206868e+00	1.217367e+00	1.277634e+00	1.289363e+00	1.224497e+00	1.224418e+00	1.208651e+00	1.234050e+00	1.224962e+00	1.224696e+00	1.227963e+00	1.237255e+00	1.224978e+00	1.224978e+00	1.225107e+00	1.224732e+00	1.340180e+00	1.240737e+00	1.247052e+00	1.224960e+00	1.341664e+00	1.233387e+00	1.224978e+00	1.224979e+00	1.222020e+00	1.254270e+00	1.234597e+00	1.224801e+00	1.076726e+00	1.394846e+00	1.223804e+00	1.224978e+00	1.224978e+00	1.224978e+00	1.238237e+00	1.228182e+00	1.224973e+00	1.184187e+00	1.224980e+00	1.201157e+00	1.224978e+00	1.205026e+00	1.224613e+00	1.224934e+00	1.205688e+00	1.224978e+00	1.222209e+00	1.225005e+00	1.224978e+00	1.224161e+00	1.219481e+00	1.250503e+00	1.254244e+00	1.099085e+00	1.260463e+00	1.211468e+00	1.224978e+00	1.225063e+00	1.224522e+00	1.224978e+00	1.224978e+00	1.224945e+00	1.221097e+00	1.226446e+00	1.224370e+00	1.223083e+00	1.288545e+00	1.373542e+00	1.224978e+00	1.120722e+00	1.224978e+00	1.224978e+00	1.225191e+00	1.224993e+00	1.224978e+00	1.224397e+00	1.225169e+00	1.226489e+00	1.224978e+00	1.348335e+00	1.224978e+00	1.224978e+00	1.227571e+00	1.224978e+00	1.214923e+00	1.199611e+00	1.224978e+00	1.210377e+00	1.241068e+00	1.224988e+00	1.224916e+00	1.224978e+00	1.387449e+00	1.224677e+00	1.135508e+00	1.233537e+00	1.224286e+00	1.225415e+00	1.230177e+00	1.224978e+00	1.218304e+00	1.219273e+00	1.224978e+00	1.222330e+00	1.229917e+00	1.208490e+00	1.402764e+00	1.207375e+00	1.225137e+00	1.224978e+00	1.225196e+00	1.210676e+00	1.225301e+00	1.223754e+00	1.150655e+00	1.204626e+00	1.207264e+00	1.224974e+00	1.224978e+00	1.224909e+00	1.222746e+00	1.230007e+00	1.224978e+00	1.224983e+00	1.219197e+00	1.224774e+00	1.224866e+00	1.313868e+00	1.130707e+00	1.222755e+00	1.221246e+00	1.224977e+00	1.200553e+00	1.230185e+00	1.224978e+00	1.228685e+00	1.224978e+00	1.222904e+00	1.224978e+00	1.224978e+00	1.266460e+00	1.224992e+00	1.224978e+00	1.224978e+00	1.224984e+00	1.211955e+00	1.225950e+00	1.238473e+00	1.216710e+00	1.387996e+00	1.221432e+00	1.220373e+00	1.225681e+00	1.235828e+00	1.238556e+00	1.226646e+00	1.224978e+00	1.199477e+00	1.224978e+00	1.222608e+00	1.285909e+00	1.180991e+00	1.163141e+00	1.222007e+00	1.224978e+00	1.225505e+00	1.190593e+00	1.236476e+00	1.202737e+00	1.224978e+00	1.028448e+00	1.242450e+00	1.231391e+00	1.212052e+00	1.224908e+00	1.224983e+00	1.217601e+00	1.088205e+00	1.232369e+00	1.224978e+00	1.224978e+00	1.060570e+00	1.357761e+00	1.225277e+00	1.054271e+00	1.224337e+00	1.225061e+00	1.328072e+00	1.224978e+00	1.223291e+00	1.264291e+00	1.232976e+00	1.225716e+00	1.346554e+00	1.365540e+00	1.211095e+00	1.224283e+00	1.224985e+00	1.24610